Scratch directory: /home/gridsan/kfisher/scratch/

  //>>>>>>>>>>>>>>>>>>>>>>>>>>>>>>>>>>>>>>>>//
  // ManyBody Setup: N-Body Levels [1, 2, 3]//
  //<<<<<<<<<<<<<<<<<<<<<<<<<<<<<<<<<<<<<<<<//

        Number of 1-body computations:     3
        Number of 2-body computations:     3
        Number of 3-body computations:     1

    -----------------------------------------------------------------------
          Psi4: An Open-Source Ab Initio Electronic Structure Package
                               Psi4 1.7 release

                         Git: Rev {HEAD} 6ce35a5 


    D. G. A. Smith, L. A. Burns, A. C. Simmonett, R. M. Parrish,
    M. C. Schieber, R. Galvelis, P. Kraus, H. Kruse, R. Di Remigio,
    A. Alenaizan, A. M. James, S. Lehtola, J. P. Misiewicz, M. Scheurer,
    R. A. Shaw, J. B. Schriber, Y. Xie, Z. L. Glick, D. A. Sirianni,
    J. S. O'Brien, J. M. Waldrop, A. Kumar, E. G. Hohenstein,
    B. P. Pritchard, B. R. Brooks, H. F. Schaefer III, A. Yu. Sokolov,
    K. Patkowski, A. E. DePrince III, U. Bozkaya, R. A. King,
    F. A. Evangelista, J. M. Turney, T. D. Crawford, C. D. Sherrill,
    J. Chem. Phys. 152(18) 184108 (2020). https://doi.org/10.1063/5.0006002

                            Additional Code Authors
    E. T. Seidl, C. L. Janssen, E. F. Valeev, M. L. Leininger,
    J. F. Gonthier, R. M. Richard, H. R. McAlexander, M. Saitow, X. Wang,
    P. Verma, M. H. Lechner, A. Jiang, S. Behnle, A. G. Heide,
    M. F. Herbst, and D. L. Poole

             Previous Authors, Complete List of Code Contributors,
                       and Citations for Specific Modules
    https://github.com/psi4/psi4/blob/master/codemeta.json
    https://github.com/psi4/psi4/graphs/contributors
    http://psicode.org/psi4manual/master/introduction.html#citing-psifour

    -----------------------------------------------------------------------


    Psi4 started on: Sunday, 17 September 2023 12:48PM

    Process ID: 258105
    Host:       d-19-15-2
    PSIDATADIR: /home/gridsan/kfisher/.conda/envs/p4env/share/psi4
    Memory:     18.6 GiB
    Threads:    1
    
  ==> Input QCSchema <==

--------------------------------------------------------------------------
{'driver': 'energy',
 'extras': {'psiapi': True, 'wfn_qcvars_only': True},
 'id': None,
 'keywords': {'D_CONVERGENCE': 1e-10, 'E_CONVERGENCE': 1e-10, 'function_kwargs': {}},
 'model': {'basis': 'aug-cc-pvtz', 'method': 'ccsd(t)'},
 'molecule': {'atom_labels': ['', '', '', '', '', '', '', '', ''],
              'atomic_numbers': [1, 1, 8, 1, 1, 8, 1, 1, 8],
              'fix_com': True,
              'fix_orientation': True,
              'fix_symmetry': 'c1',
              'fragment_charges': [0.0, 0.0, 0.0],
              'fragment_multiplicities': [1, 1, 1],
              'fragments': [[0, 1, 2], [3, 4, 5], [6, 7, 8]],
              'geometry': [1.8482832032045564, 4.731014317170273, -7.990675703222834, 1.0081639368493027,
                           2.355881385030847, -6.390948630834015, 1.8746355096131109, 4.031888707562887,
                           -6.324247629187875, 6.689770437237563, 2.6766848258764226, -2.2144622186513105,
                           4.737047683565545, 2.625455371067369, -4.434821743416859, 5.9874398521214, 1.63660420845311,
                           -3.539735843175062, 9.4672772541677, 6.25728191470608, 0.8720680155816128, 7.775399161257309,
                           4.274877743007549, 2.254691294225155, 7.768500621550017, 5.616999428672693,
                           0.9830497223063643],
              'mass_numbers': [1, 1, 16, 1, 1, 16, 1, 1, 16],
              'masses': [1.00782503223, 1.00782503223, 15.99491461957, 1.00782503223, 1.00782503223, 15.99491461957,
                         1.00782503223, 1.00782503223, 15.99491461957],
              'molecular_charge': 0.0,
              'molecular_multiplicity': 1,
              'name': 'H6O3',
              'provenance': {'creator': 'QCElemental',
                             'routine': 'qcelemental.molparse.from_string',
                             'version': 'v0.25.1'},
              'real': [True, True, True, False, False, False, False, False, False],
              'schema_name': 'qcschema_molecule',
              'schema_version': 2,
              'symbols': ['H', 'H', 'O', 'H', 'H', 'O', 'H', 'H', 'O'],
              'validated': True},
 'protocols': {'stdout': True},
 'provenance': {'creator': 'QCElemental', 'routine': 'qcelemental.models.results', 'version': 'v0.25.1'},
 'schema_name': 'qcschema_input',
 'schema_version': 1}
--------------------------------------------------------------------------

Scratch directory: /home/gridsan/kfisher/scratch/

*** tstart() called on d-19-15-2
*** at Mon Sep 18 10:04:04 2023

   => Loading Basis Set <=

    Name: AUG-CC-PVTZ
    Role: ORBITAL
    Keyword: BASIS
    atoms 1-2, 4-5, 7-8 entry H          line    40 file /home/gridsan/kfisher/.conda/envs/p4env/share/psi4/basis/aug-cc-pvtz.gbs 
    atoms 3, 6, 9       entry O          line   331 file /home/gridsan/kfisher/.conda/envs/p4env/share/psi4/basis/aug-cc-pvtz.gbs 


         ---------------------------------------------------------
                                   SCF
               by Justin Turney, Rob Parrish, Andy Simmonett
                          and Daniel G. A. Smith
                              RHF Reference
                        1 Threads,  19073 MiB Core
         ---------------------------------------------------------

  ==> Geometry <==

    Molecular point group: c1
    Full point group: C1

    Geometry (in Bohr), charge = 0, multiplicity = 1:

       Center              X                  Y                   Z               Mass       
    ------------   -----------------  -----------------  -----------------  -----------------
         H            1.848283203205     4.731014317170    -7.990675703223     1.007825032230
         H            1.008163936849     2.355881385031    -6.390948630834     1.007825032230
         O            1.874635509613     4.031888707563    -6.324247629188    15.994914619570
      Gh(H)           6.689770437238     2.676684825876    -2.214462218651     1.007825032230
      Gh(H)           4.737047683566     2.625455371067    -4.434821743417     1.007825032230
      Gh(O)           5.987439852121     1.636604208453    -3.539735843175    15.994914619570
      Gh(H)           9.467277254168     6.257281914706     0.872068015582     1.007825032230
      Gh(H)           7.775399161257     4.274877743008     2.254691294225     1.007825032230
      Gh(O)           7.768500621550     5.616999428673     0.983049722306    15.994914619570

  Running in c1 symmetry.

  Rotational constants: A =      0.06433  B =      0.02065  C =      0.01679 [cm^-1]
  Rotational constants: A =   1928.62339  B =    619.15287  C =    503.40988 [MHz]
  Nuclear repulsion =    8.998974628461220

  Charge       = 0
  Multiplicity = 1
  Electrons    = 10
  Nalpha       = 5
  Nbeta        = 5

  ==> Algorithm <==

  SCF Algorithm Type is PK.
  DIIS enabled.
  MOM disabled.
  Fractional occupation disabled.
  Guess Type is SAD.
  Energy threshold   = 1.00e-10
  Density threshold  = 1.00e-10
  Integral threshold = 1.00e-12

  ==> Primary Basis <==

  Basis Set: AUG-CC-PVTZ
    Blend: AUG-CC-PVTZ
    Number of shells: 96
    Number of basis functions: 276
    Number of Cartesian functions: 315
    Spherical Harmonics?: true
    Max angular momentum: 3

  ==> Integral Setup <==

  Using in-core PK algorithm.
   Calculation information:
      Number of atoms:                   9
      Number of AO shells:              96
      Number of primitives:            156
      Number of atomic orbitals:       315
      Number of basis functions:       276

      Integral cutoff                 1.00e-12
      Number of threads:                 1

  Performing in-core PK
  Using 1461265302 doubles for integral storage.
  We computed 8690381 shell quartets total.
  Whereas there are 10841496 unique shell quartets.

  ==> DiskJK: Disk-Based J/K Matrices <==

    J tasked:                  Yes
    K tasked:                  Yes
    wK tasked:                  No
    Memory [MiB]:            14305
    Schwarz Cutoff:          1E-12

    OpenMP threads:              1

  Minimum eigenvalue in the overlap matrix is 1.6624807431E-04.
  Reciprocal condition number of the overlap matrix is 1.7367775616E-05.
    Using symmetric orthogonalization.

  ==> Pre-Iterations <==

  SCF Guess: Superposition of Atomic Densities via on-the-fly atomic UHF (no occupation information).

   -------------------------
    Irrep   Nso     Nmo    
   -------------------------
     A        276     276 
   -------------------------
    Total     276     276
   -------------------------

  ==> Iterations <==

                        Total Energy        Delta E     RMS |[F,P]|

   @RHF iter SAD:   -75.45069535036956   -7.54507e+01   0.00000e+00 
   @RHF iter   1:   -75.97251795719195   -5.21823e-01   1.69380e-03 DIIS/ADIIS
   @RHF iter   2:   -76.02442143286802   -5.19035e-02   1.17546e-03 DIIS/ADIIS
   @RHF iter   3:   -76.05712806757546   -3.27066e-02   8.03315e-05 DIIS
   @RHF iter   4:   -76.05755168142716   -4.23614e-04   2.00616e-05 DIIS
   @RHF iter   5:   -76.05758079111146   -2.91097e-05   4.65882e-06 DIIS
   @RHF iter   6:   -76.05758328613662   -2.49503e-06   1.04313e-06 DIIS
   @RHF iter   7:   -76.05758342298597   -1.36849e-07   1.91625e-07 DIIS
   @RHF iter   8:   -76.05758342701105   -4.02508e-09   3.28659e-08 DIIS
   @RHF iter   9:   -76.05758342710787   -9.68186e-11   8.62255e-09 DIIS
   @RHF iter  10:   -76.05758342711404   -6.16751e-12   1.27141e-09 DIIS
   @RHF iter  11:   -76.05758342711401    2.84217e-14   2.61768e-10 DIIS
   @RHF iter  12:   -76.05758342711370    3.12639e-13   6.00957e-11 DIIS
  Energy and wave function converged.


  ==> Post-Iterations <==

    Orbital Energies [Eh]
    ---------------------

    Doubly Occupied:                                                      

       1A    -20.569018     2A     -1.341413     3A     -0.712621  
       4A     -0.574628     5A     -0.507737  

    Virtual:                                                              

       6A      0.025662     7A      0.036840     8A      0.044790  
       9A      0.058346    10A      0.059642    11A      0.079205  
      12A      0.111531    13A      0.129157    14A      0.143149  
      15A      0.149705    16A      0.154048    17A      0.169841  
      18A      0.170225    19A      0.176695    20A      0.185252  
      21A      0.207612    22A      0.214830    23A      0.219061  
      24A      0.237318    25A      0.262947    26A      0.272531  
      27A      0.286239    28A      0.298605    29A      0.303252  
      30A      0.311343    31A      0.329597    32A      0.363917  
      33A      0.368694    34A      0.371518    35A      0.374369  
      36A      0.382607    37A      0.395737    38A      0.399025  
      39A      0.410936    40A      0.427829    41A      0.429722  
      42A      0.448539    43A      0.462657    44A      0.467499  
      45A      0.490706    46A      0.504796    47A      0.608042  
      48A      0.620495    49A      0.664100    50A      0.668890  
      51A      0.702433    52A      0.713018    53A      0.735286  
      54A      0.753250    55A      0.762831    56A      0.772242  
      57A      0.783284    58A      0.789622    59A      0.805550  
      60A      0.813248    61A      0.824412    62A      0.832268  
      63A      0.843971    64A      0.848863    65A      0.853880  
      66A      0.860580    67A      0.876055    68A      0.884056  
      69A      0.914915    70A      0.916205    71A      0.923374  
      72A      0.928387    73A      0.934923    74A      0.940814  
      75A      0.961347    76A      0.971167    77A      0.998555  
      78A      1.007371    79A      1.020253    80A      1.031631  
      81A      1.043997    82A      1.050840    83A      1.060811  
      84A      1.062770    85A      1.081992    86A      1.107945  
      87A      1.128169    88A      1.146845    89A      1.150550  
      90A      1.167289    91A      1.181446    92A      1.187523  
      93A      1.206304    94A      1.225873    95A      1.236621  
      96A      1.269010    97A      1.300412    98A      1.309814  
      99A      1.323299   100A      1.342615   101A      1.365621  
     102A      1.441781   103A      1.469643   104A      1.519613  
     105A      1.525039   106A      1.539164   107A      1.581869  
     108A      1.598299   109A      1.647609   110A      1.671127  
     111A      1.704216   112A      1.726454   113A      1.766333  
     114A      1.780865   115A      1.794987   116A      1.807059  
     117A      1.820188   118A      1.847851   119A      1.865562  
     120A      1.879744   121A      1.910805   122A      1.942437  
     123A      1.998205   124A      2.051699   125A      2.068148  
     126A      2.089571   127A      2.151444   128A      2.252204  
     129A      2.327394   130A      2.405842   131A      2.407371  
     132A      2.444004   133A      2.455274   134A      2.484152  
     135A      2.499562   136A      2.521989   137A      2.534179  
     138A      2.554823   139A      2.560630   140A      2.577483  
     141A      2.590974   142A      2.618008   143A      2.631786  
     144A      2.650358   145A      2.675112   146A      2.693266  
     147A      2.718073   148A      2.740772   149A      2.761625  
     150A      2.771384   151A      2.814010   152A      2.849517  
     153A      2.881924   154A      2.890253   155A      2.974289  
     156A      3.008552   157A      3.064907   158A      3.137742  
     159A      3.188958   160A      3.198227   161A      3.257653  
     162A      3.289912   163A      3.312675   164A      3.330483  
     165A      3.379143   166A      3.450007   167A      3.505072  
     168A      3.525571   169A      3.562886   170A      3.699479  
     171A      3.725761   172A      3.773438   173A      3.846265  
     174A      3.947664   175A      4.077333   176A      4.215829  
     177A      4.256402   178A      4.346806   179A      4.360163  
     180A      4.389500   181A      4.432389   182A      4.456581  
     183A      4.479707   184A      4.507004   185A      4.540982  
     186A      4.565908   187A      4.597222   188A      4.621066  
     189A      4.631951   190A      4.651946   191A      4.674613  
     192A      4.681363   193A      4.696799   194A      4.734087  
     195A      4.786527   196A      4.825535   197A      4.917747  
     198A      4.935469   199A      4.968802   200A      4.978508  
     201A      5.002624   202A      5.109947   203A      5.112147  
     204A      5.144326   205A      5.188754   206A      5.245703  
     207A      5.303223   208A      5.335636   209A      5.371855  
     210A      5.482959   211A      5.489926   212A      5.555775  
     213A      5.581845   214A      5.640912   215A      5.680976  
     216A      5.732363   217A      5.759174   218A      5.823564  
     219A      5.870511   220A      6.146740   221A      6.237060  
     222A      6.314917   223A      6.340838   224A      6.468570  
     225A      6.623892   226A      6.666192   227A      6.766402  
     228A      6.816897   229A      6.918901   230A      7.035853  
     231A      7.152347   232A      7.163375   233A      7.316673  
     234A      7.340340   235A      7.360920   236A      7.403816  
     237A      7.434410   238A      7.667010   239A      7.697065  
     240A      7.736989   241A      7.812372   242A      7.842179  
     243A      7.902273   244A      7.939477   245A      8.106472  
     246A      8.128944   247A      8.201365   248A      8.266699  
     249A      8.319101   250A      8.332294   251A      8.710869  
     252A      8.749416   253A      8.774088   254A      8.946713  
     255A      9.079389   256A      9.705880   257A      9.767854  
     258A      9.875976   259A      9.944454   260A     10.023884  
     261A     10.193344   262A     10.206771   263A     10.389250  
     264A     11.148382   265A     11.232521   266A     11.791327  
     267A     11.833192   268A     12.070215   269A     12.250565  
     270A     13.451501   271A     13.773430   272A     13.866159  
     273A     14.126277   274A     15.773296   275A     64.278647  
     276A     67.494360  

    Final Occupation by Irrep:
              A 
    DOCC [     5 ]
    NA   [     5 ]
    NB   [     5 ]

  @RHF Final Energy:   -76.05758342711370

   => Energetics <=

    Nuclear Repulsion Energy =              8.9989746284612195
    One-Electron Energy =                -122.7022827810685754
    Two-Electron Energy =                  37.6457247254936505
    Total Energy =                        -76.0575834271136983

Computation Completed


Properties will be evaluated at   0.000000,   0.000000,   0.000000 [a0]

Properties computed using the SCF density matrix


 Multipole Moments:

 ------------------------------------------------------------------------------------
     Multipole            Electronic (a.u.)      Nuclear  (a.u.)        Total (a.u.)
 ------------------------------------------------------------------------------------

 L = 1.  Multiply by 2.5417464519 to convert [e a0] to [Debye]
 Dipole X            :        -18.1649545           17.8535312           -0.3114233
 Dipole Y            :        -39.6792521           39.3420054           -0.3372468
 Dipole Z            :         64.3642865          -64.9756054           -0.6113189
 Magnitude           :                                                    0.7644806

 ------------------------------------------------------------------------------------

*** tstop() called on d-19-15-2 at Mon Sep 18 10:05:22 2023
Module time:
	user time   =      73.05 seconds =       1.22 minutes
	system time =       3.05 seconds =       0.05 minutes
	total time  =         78 seconds =       1.30 minutes
Total time:
	user time   =   45629.85 seconds =     760.50 minutes
	system time =   22544.20 seconds =     375.74 minutes
	total time  =      76618 seconds =    1276.97 minutes
 MINTS: Wrapper to libmints.
   by Justin Turney

   Calculation information:
      Number of threads:                 1
      Number of atoms:                   9
      Number of AO shells:              96
      Number of SO shells:              96
      Number of primitives:            156
      Number of atomic orbitals:       315
      Number of basis functions:       276

      Number of irreps:                  1
      Integral cutoff                 1.00e-12
      Number of functions per irrep: [ 276 ]

 OEINTS: Overlap, kinetic, potential, dipole, and quadrupole integrals
         stored in file 35.

      Computing two-electron integrals...done
      Computed 522316300 non-zero two-electron integrals.
        Stored in file 33.


*** tstart() called on d-19-15-2
*** at Mon Sep 18 10:06:24 2023


	Wfn Parameters:
	--------------------
	Wavefunction         = CCSD_T
	Number of irreps     = 1
	Number of MOs        = 276
	Number of active MOs = 276
	AO-Basis             = NONE
	Semicanonical        = false
	Reference            = RHF
	Print Level          = 1

	IRREP	# MOs	# FZDC	# DOCC	# SOCC	# VIRT	# FZVR
	-----	-----	------	------	------	------	------
	 A	   276	    0	    5	    0	    271	    0
	Transforming integrals...
	IWL integrals will be deleted.
	(OO|OO)...
	Presorting SO-basis two-electron integrals.
	Sorting File: SO Ints (nn|nn) nbuckets = 1
	Constructing frozen core operators
	Starting first half-transformation.
	Sorting half-transformed integrals.
	First half integral transformation complete.
	Starting second half-transformation.
	Two-electron integral transformation complete.
	(OO|OV)...
	Starting second half-transformation.
	Two-electron integral transformation complete.
	(OO|VV)...
	Starting second half-transformation.
	Two-electron integral transformation complete.
	(OV|OO)...
	Starting first half-transformation.
	Sorting half-transformed integrals.
	First half integral transformation complete.
	Starting second half-transformation.
	Two-electron integral transformation complete.
	(OV|OV)...
	Starting second half-transformation.
	Two-electron integral transformation complete.
	(OV|VV)...
	Starting second half-transformation.
	Two-electron integral transformation complete.
	(VV|OO)...
	Starting first half-transformation.
	Sorting half-transformed integrals.
	First half integral transformation complete.
	Starting second half-transformation.
	Two-electron integral transformation complete.
	(VV|OV)...
	Starting second half-transformation.
	Two-electron integral transformation complete.
	(VV|VV)...
	Starting second half-transformation.
	Two-electron integral transformation complete.
	Frozen core energy     =      0.00000000000000

	Size of irrep 0 of <ab|cd> integrals:   5393.580 (MW) /  43148.644 (MB)
	Total:                                  5393.580 (MW) /  43148.644 (MB)

	Size of irrep 0 of <ia|bc> integrals:     99.513 (MW) /    796.100 (MB)
	Total:                                    99.513 (MW) /    796.100 (MB)

	Size of irrep 0 of tijab amplitudes:       1.836 (MW) /     14.688 (MB)
	Total:                                     1.836 (MW) /     14.688 (MB)

	Nuclear Rep. energy          =      8.99897462846122
	SCF energy                   =    -76.05758342711370
	One-electron energy          =   -122.70228278324633
	Two-electron energy          =     37.64572472767103
	Reference energy             =    -76.05758342711408

*** tstop() called on d-19-15-2 at Mon Sep 18 10:22:26 2023
Module time:
	user time   =     512.00 seconds =       8.53 minutes
	system time =     315.62 seconds =       5.26 minutes
	total time  =        962 seconds =      16.03 minutes
Total time:
	user time   =   46185.97 seconds =     769.77 minutes
	system time =   22873.21 seconds =     381.22 minutes
	total time  =      77642 seconds =    1294.03 minutes
            **************************
            *                        *
            *        CCENERGY        *
            *                        *
            **************************

    Nuclear Rep. energy (wfn)     =    8.998974628461220
    SCF energy          (wfn)     =  -76.057583427113698
    Reference energy    (file100) =  -76.057583427114082

    Input parameters:
    -----------------
    Wave function   =     CCSD_T
    Reference wfn   =     RHF
    Brueckner       =     No
    Memory (Mbytes) =     20000.0
    Maxiter         =     50
    R_Convergence   =     1.0e-07
    E_Convergence   =     1.0e-10
    Restart         =     Yes
    DIIS            =     Yes
    AO Basis        =     NONE
    ABCD            =     NEW
    Cache Level     =     2
    Cache Type      =     LOW
    Print Level     =     1
    Num. of threads =     1
    # Amps to Print =     10
    Print MP2 Amps? =     No
    Analyze T2 Amps =     No
    Print Pair Ener =     No
    Local CC        =     No
    SCS-MP2         =     False
    SCSN-MP2        =     False
    SCS-CCSD        =     False

MP2 correlation energy -0.2854298386484161
                Solving CC Amplitude Equations
                ------------------------------
  Iter             Energy              RMS        T1Diag      D1Diag    New D1Diag    D2Diag
  ----     ---------------------    ---------   ----------  ----------  ----------   --------
     0        -0.285429838648416    0.000e+00    0.000000    0.000000    0.000000    0.120543
     1        -0.283408048319238    3.628e-02    0.007764    0.017475    0.017475    0.122978
     2        -0.288587914047672    1.293e-02    0.007596    0.017227    0.017227    0.127867
     3        -0.289990366407837    5.079e-03    0.008821    0.020545    0.020545    0.130237
     4        -0.289857396451003    1.111e-03    0.008981    0.021012    0.021012    0.130478
     5        -0.289868360629650    4.205e-04    0.009070    0.021317    0.021317    0.130556
     6        -0.289876357041295    1.104e-04    0.009093    0.021405    0.021405    0.130558
     7        -0.289874478038176    3.987e-05    0.009099    0.021427    0.021427    0.130550
     8        -0.289873826026795    1.192e-05    0.009100    0.021433    0.021433    0.130548
     9        -0.289873978292996    4.533e-06    0.009101    0.021435    0.021435    0.130548
    10        -0.289873753448397    1.773e-06    0.009101    0.021436    0.021436    0.130548
    11        -0.289873756127707    6.073e-07    0.009101    0.021436    0.021436    0.130548
    12        -0.289873746747745    2.778e-07    0.009101    0.021436    0.021436    0.130548
    13        -0.289873742431854    9.928e-08    0.009101    0.021435    0.021435    0.130548
    14        -0.289873742420292    3.605e-08    0.009101    0.021435    0.021435    0.130548
    15        -0.289873742644164    1.290e-08    0.009101    0.021435    0.021435    0.130548

    Iterations converged.


    Largest TIA Amplitudes:
              4  12        -0.0074148261
              4  22         0.0058958444
              4  17         0.0056537427
              4   6        -0.0054950444
              4  11         0.0052880285
              3  10         0.0051700700
              4   5         0.0049819547
              4  33        -0.0043872380
              3   6        -0.0042241151
              3  17        -0.0041866237

    Largest TIjAb Amplitudes:
      2   2  37  37        -0.0174625227
      2   2  14  37        -0.0110349395
      2   2  37  14        -0.0110349395
      2   2  43  43        -0.0105267410
      2   2  42  42        -0.0104697580
      3   3  42  42        -0.0098710533
      2   2  37  76        -0.0085810471
      2   2  76  37        -0.0085810471
      2   2  37  38        -0.0079211432
      2   2  38  37        -0.0079211432

    SCF energy       (wfn)                    =  -76.057583427113698
    Reference energy (file100)                =  -76.057583427114082

    Opposite-spin MP2 correlation energy      =   -0.216747733530877
    Same-spin MP2 correlation energy          =   -0.068682105117539
    Singles MP2 correlation energy            =   -0.000000000000000
    MP2 correlation energy                    =   -0.285429838648416
      * MP2 total energy                      =  -76.343013265762494

    Opposite-spin CCSD correlation energy     =   -0.228812252604932
    Same-spin CCSD correlation energy         =   -0.061061490039232
    Singles CCSD correlation energy           =    0.000000000000000
    CCSD correlation energy                   =   -0.289873742644164
      * CCSD total energy                     =  -76.347457169758243

            **************************
            *                        *
            *        CCTRIPLES       *
            *                        *
            **************************


    Wave function   =    CCSD_T
    Reference wfn   =      RHF

    Nuclear Rep. energy (wfn)                =    8.998974628461220
    SCF energy          (wfn)                =  -76.057583427113698
    Reference energy    (file100)            =  -76.057583427114082
    CCSD energy         (file100)            =   -0.289873742644164
    Total CCSD energy   (file100)            =  -76.347457169758243

    Number of ijk index combinations:               35
    Memory available in words               :      2500000000
    Approx. words needed per explicit thread:        79610044
    Number of threads for explicit ijk threading:    1

    MKL num_threads set to 1 for explicit threading.

    (T) energy                                =   -0.008985452777297
      * CCSD(T) total energy                  =  -76.356442622535539


    Psi4 stopped on: Monday, 18 September 2023 10:31AM
    Psi4 wall time for execution: 0:27:27.87


    -----------------------------------------------------------------------
          Psi4: An Open-Source Ab Initio Electronic Structure Package
                               Psi4 1.7 release

                         Git: Rev {HEAD} 6ce35a5 


    D. G. A. Smith, L. A. Burns, A. C. Simmonett, R. M. Parrish,
    M. C. Schieber, R. Galvelis, P. Kraus, H. Kruse, R. Di Remigio,
    A. Alenaizan, A. M. James, S. Lehtola, J. P. Misiewicz, M. Scheurer,
    R. A. Shaw, J. B. Schriber, Y. Xie, Z. L. Glick, D. A. Sirianni,
    J. S. O'Brien, J. M. Waldrop, A. Kumar, E. G. Hohenstein,
    B. P. Pritchard, B. R. Brooks, H. F. Schaefer III, A. Yu. Sokolov,
    K. Patkowski, A. E. DePrince III, U. Bozkaya, R. A. King,
    F. A. Evangelista, J. M. Turney, T. D. Crawford, C. D. Sherrill,
    J. Chem. Phys. 152(18) 184108 (2020). https://doi.org/10.1063/5.0006002

                            Additional Code Authors
    E. T. Seidl, C. L. Janssen, E. F. Valeev, M. L. Leininger,
    J. F. Gonthier, R. M. Richard, H. R. McAlexander, M. Saitow, X. Wang,
    P. Verma, M. H. Lechner, A. Jiang, S. Behnle, A. G. Heide,
    M. F. Herbst, and D. L. Poole

             Previous Authors, Complete List of Code Contributors,
                       and Citations for Specific Modules
    https://github.com/psi4/psi4/blob/master/codemeta.json
    https://github.com/psi4/psi4/graphs/contributors
    http://psicode.org/psi4manual/master/introduction.html#citing-psifour

    -----------------------------------------------------------------------


    Psi4 started on: Sunday, 17 September 2023 12:48PM

    Process ID: 258105
    Host:       d-19-15-2
    PSIDATADIR: /home/gridsan/kfisher/.conda/envs/p4env/share/psi4
    Memory:     18.6 GiB
    Threads:    1
    
  ==> Input QCSchema <==

--------------------------------------------------------------------------
{'driver': 'energy',
 'extras': {'psiapi': True, 'wfn_qcvars_only': True},
 'id': None,
 'keywords': {'D_CONVERGENCE': 1e-10, 'E_CONVERGENCE': 1e-10, 'function_kwargs': {}},
 'model': {'basis': 'aug-cc-pvtz', 'method': 'ccsd(t)'},
 'molecule': {'atom_labels': ['', '', '', '', '', '', '', '', ''],
              'atomic_numbers': [1, 1, 8, 1, 1, 8, 1, 1, 8],
              'fix_com': True,
              'fix_orientation': True,
              'fix_symmetry': 'c1',
              'fragment_charges': [0.0, 0.0, 0.0],
              'fragment_multiplicities': [1, 1, 1],
              'fragments': [[0, 1, 2], [3, 4, 5], [6, 7, 8]],
              'geometry': [1.8482832032045564, 4.731014317170273, -7.990675703222834, 1.0081639368493027,
                           2.355881385030847, -6.390948630834015, 1.8746355096131109, 4.031888707562887,
                           -6.324247629187875, 6.689770437237563, 2.6766848258764226, -2.2144622186513105,
                           4.737047683565545, 2.625455371067369, -4.434821743416859, 5.9874398521214, 1.63660420845311,
                           -3.539735843175062, 9.4672772541677, 6.25728191470608, 0.8720680155816128, 7.775399161257309,
                           4.274877743007549, 2.254691294225155, 7.768500621550017, 5.616999428672693,
                           0.9830497223063643],
              'mass_numbers': [1, 1, 16, 1, 1, 16, 1, 1, 16],
              'masses': [1.00782503223, 1.00782503223, 15.99491461957, 1.00782503223, 1.00782503223, 15.99491461957,
                         1.00782503223, 1.00782503223, 15.99491461957],
              'molecular_charge': 0.0,
              'molecular_multiplicity': 1,
              'name': 'H6O3',
              'provenance': {'creator': 'QCElemental',
                             'routine': 'qcelemental.molparse.from_string',
                             'version': 'v0.25.1'},
              'real': [False, False, False, True, True, True, False, False, False],
              'schema_name': 'qcschema_molecule',
              'schema_version': 2,
              'symbols': ['H', 'H', 'O', 'H', 'H', 'O', 'H', 'H', 'O'],
              'validated': True},
 'protocols': {'stdout': True},
 'provenance': {'creator': 'QCElemental', 'routine': 'qcelemental.models.results', 'version': 'v0.25.1'},
 'schema_name': 'qcschema_input',
 'schema_version': 1}
--------------------------------------------------------------------------

Scratch directory: /home/gridsan/kfisher/scratch/

*** tstart() called on d-19-15-2
*** at Mon Sep 18 10:31:32 2023

   => Loading Basis Set <=

    Name: AUG-CC-PVTZ
    Role: ORBITAL
    Keyword: BASIS
    atoms 1-2, 4-5, 7-8 entry H          line    40 file /home/gridsan/kfisher/.conda/envs/p4env/share/psi4/basis/aug-cc-pvtz.gbs 
    atoms 3, 6, 9       entry O          line   331 file /home/gridsan/kfisher/.conda/envs/p4env/share/psi4/basis/aug-cc-pvtz.gbs 


         ---------------------------------------------------------
                                   SCF
               by Justin Turney, Rob Parrish, Andy Simmonett
                          and Daniel G. A. Smith
                              RHF Reference
                        1 Threads,  19073 MiB Core
         ---------------------------------------------------------

  ==> Geometry <==

    Molecular point group: c1
    Full point group: C1

    Geometry (in Bohr), charge = 0, multiplicity = 1:

       Center              X                  Y                   Z               Mass       
    ------------   -----------------  -----------------  -----------------  -----------------
      Gh(H)           1.848283203205     4.731014317170    -7.990675703223     1.007825032230
      Gh(H)           1.008163936849     2.355881385031    -6.390948630834     1.007825032230
      Gh(O)           1.874635509613     4.031888707563    -6.324247629188    15.994914619570
         H            6.689770437238     2.676684825876    -2.214462218651     1.007825032230
         H            4.737047683566     2.625455371067    -4.434821743417     1.007825032230
         O            5.987439852121     1.636604208453    -3.539735843175    15.994914619570
      Gh(H)           9.467277254168     6.257281914706     0.872068015582     1.007825032230
      Gh(H)           7.775399161257     4.274877743008     2.254691294225     1.007825032230
      Gh(O)           7.768500621550     5.616999428673     0.983049722306    15.994914619570

  Running in c1 symmetry.

  Rotational constants: A =      0.06433  B =      0.02065  C =      0.01679 [cm^-1]
  Rotational constants: A =   1928.62339  B =    619.15287  C =    503.40988 [MHz]
  Nuclear repulsion =    9.096981845556908

  Charge       = 0
  Multiplicity = 1
  Electrons    = 10
  Nalpha       = 5
  Nbeta        = 5

  ==> Algorithm <==

  SCF Algorithm Type is PK.
  DIIS enabled.
  MOM disabled.
  Fractional occupation disabled.
  Guess Type is SAD.
  Energy threshold   = 1.00e-10
  Density threshold  = 1.00e-10
  Integral threshold = 1.00e-12

  ==> Primary Basis <==

  Basis Set: AUG-CC-PVTZ
    Blend: AUG-CC-PVTZ
    Number of shells: 96
    Number of basis functions: 276
    Number of Cartesian functions: 315
    Spherical Harmonics?: true
    Max angular momentum: 3

  ==> Integral Setup <==

  Using in-core PK algorithm.
   Calculation information:
      Number of atoms:                   9
      Number of AO shells:              96
      Number of primitives:            156
      Number of atomic orbitals:       315
      Number of basis functions:       276

      Integral cutoff                 1.00e-12
      Number of threads:                 1

  Performing in-core PK
  Using 1461265302 doubles for integral storage.
  We computed 8690381 shell quartets total.
  Whereas there are 10841496 unique shell quartets.

  ==> DiskJK: Disk-Based J/K Matrices <==

    J tasked:                  Yes
    K tasked:                  Yes
    wK tasked:                  No
    Memory [MiB]:            14305
    Schwarz Cutoff:          1E-12

    OpenMP threads:              1

  Minimum eigenvalue in the overlap matrix is 1.6624807431E-04.
  Reciprocal condition number of the overlap matrix is 1.7367775616E-05.
    Using symmetric orthogonalization.

  ==> Pre-Iterations <==

  SCF Guess: Superposition of Atomic Densities via on-the-fly atomic UHF (no occupation information).

   -------------------------
    Irrep   Nso     Nmo    
   -------------------------
     A        276     276 
   -------------------------
    Total     276     276
   -------------------------

  ==> Iterations <==

                        Total Energy        Delta E     RMS |[F,P]|

   @RHF iter SAD:   -75.46367359950429   -7.54637e+01   0.00000e+00 
   @RHF iter   1:   -75.97544809595531   -5.11774e-01   1.69509e-03 DIIS/ADIIS
   @RHF iter   2:   -76.02758124046638   -5.21331e-02   1.16103e-03 DIIS/ADIIS
   @RHF iter   3:   -76.05930204251027   -3.17208e-02   7.91343e-05 DIIS
   @RHF iter   4:   -76.05970573696833   -4.03694e-04   1.92093e-05 DIIS
   @RHF iter   5:   -76.05973170429191   -2.59673e-05   4.38077e-06 DIIS
   @RHF iter   6:   -76.05973386434439   -2.16005e-06   9.76906e-07 DIIS
   @RHF iter   7:   -76.05973398318356   -1.18839e-07   1.82515e-07 DIIS
   @RHF iter   8:   -76.05973398682755   -3.64399e-09   3.04981e-08 DIIS
   @RHF iter   9:   -76.05973398690935   -8.17977e-11   7.75343e-09 DIIS
   @RHF iter  10:   -76.05973398691401   -4.66116e-12   1.06112e-09 DIIS
   @RHF iter  11:   -76.05973398691435   -3.41061e-13   1.62438e-10 DIIS
   @RHF iter  12:   -76.05973398691424    1.13687e-13   2.88507e-11 DIIS
  Energy and wave function converged.


  ==> Post-Iterations <==

    Orbital Energies [Eh]
    ---------------------

    Doubly Occupied:                                                      

       1A    -20.567211     2A     -1.346250     3A     -0.719308  
       4A     -0.576166     5A     -0.508492  

    Virtual:                                                              

       6A      0.019113     7A      0.032800     8A      0.045442  
       9A      0.058202    10A      0.064022    11A      0.077128  
      12A      0.096313    13A      0.114934    14A      0.119579  
      15A      0.143514    16A      0.148241    17A      0.158318  
      18A      0.171281    19A      0.178558    20A      0.194656  
      21A      0.199997    22A      0.217126    23A      0.230039  
      24A      0.241486    25A      0.261832    26A      0.275371  
      27A      0.280146    28A      0.283884    29A      0.298091  
      30A      0.310010    31A      0.316416    32A      0.322656  
      33A      0.350038    34A      0.360508    35A      0.371245  
      36A      0.371378    37A      0.377840    38A      0.391300  
      39A      0.393641    40A      0.406226    41A      0.412522  
      42A      0.420978    43A      0.438347    44A      0.447593  
      45A      0.508834    46A      0.567503    47A      0.583757  
      48A      0.640453    49A      0.650724    50A      0.654338  
      51A      0.682152    52A      0.710043    53A      0.737859  
      54A      0.740861    55A      0.750180    56A      0.759606  
      57A      0.769553    58A      0.774164    59A      0.777183  
      60A      0.796801    61A      0.802380    62A      0.805067  
      63A      0.815739    64A      0.825397    65A      0.844246  
      66A      0.858763    67A      0.865178    68A      0.884314  
      69A      0.889495    70A      0.901090    71A      0.918401  
      72A      0.929023    73A      0.935341    74A      0.942776  
      75A      0.966112    76A      0.973307    77A      0.984394  
      78A      0.992199    79A      1.008328    80A      1.016756  
      81A      1.027544    82A      1.040408    83A      1.048334  
      84A      1.066698    85A      1.090091    86A      1.101905  
      87A      1.118023    88A      1.129488    89A      1.139906  
      90A      1.146261    91A      1.160747    92A      1.175996  
      93A      1.187685    94A      1.200321    95A      1.226366  
      96A      1.265072    97A      1.290939    98A      1.302005  
      99A      1.324948   100A      1.340194   101A      1.363138  
     102A      1.421954   103A      1.435541   104A      1.454208  
     105A      1.480400   106A      1.527209   107A      1.538358  
     108A      1.555895   109A      1.610117   110A      1.624572  
     111A      1.676609   112A      1.686752   113A      1.733005  
     114A      1.748157   115A      1.752656   116A      1.778781  
     117A      1.816581   118A      1.828035   119A      1.842034  
     120A      1.850111   121A      1.870103   122A      1.979676  
     123A      1.986231   124A      2.017420   125A      2.046693  
     126A      2.057277   127A      2.233298   128A      2.307131  
     129A      2.335995   130A      2.372745   131A      2.399200  
     132A      2.421706   133A      2.453068   134A      2.456233  
     135A      2.495152   136A      2.508552   137A      2.517698  
     138A      2.527783   139A      2.543408   140A      2.547479  
     141A      2.559942   142A      2.579136   143A      2.585117  
     144A      2.622512   145A      2.634590   146A      2.686223  
     147A      2.723880   148A      2.747513   149A      2.771548  
     150A      2.841579   151A      2.856274   152A      2.866823  
     153A      2.920759   154A      2.987261   155A      3.022617  
     156A      3.042393   157A      3.070379   158A      3.146337  
     159A      3.156094   160A      3.168462   161A      3.174811  
     162A      3.199279   163A      3.252768   164A      3.261311  
     165A      3.287899   166A      3.307713   167A      3.362623  
     168A      3.416616   169A      3.523856   170A      3.531224  
     171A      3.674473   172A      3.685916   173A      3.903018  
     174A      4.059649   175A      4.087308   176A      4.236063  
     177A      4.252770   178A      4.274491   179A      4.327186  
     180A      4.345050   181A      4.363431   182A      4.414547  
     183A      4.429021   184A      4.452559   185A      4.491257  
     186A      4.528643   187A      4.548043   188A      4.580389  
     189A      4.599310   190A      4.602326   191A      4.641537  
     192A      4.661663   193A      4.692838   194A      4.716011  
     195A      4.816635   196A      4.856035   197A      4.927051  
     198A      4.947876   199A      4.966402   200A      5.022069  
     201A      5.061087   202A      5.074349   203A      5.141370  
     204A      5.161537   205A      5.195439   206A      5.211011  
     207A      5.269441   208A      5.387904   209A      5.441400  
     210A      5.456603   211A      5.463402   212A      5.519527  
     213A      5.553015   214A      5.567891   215A      5.655853  
     216A      5.738443   217A      5.768054   218A      5.799833  
     219A      5.837122   220A      6.160222   221A      6.217518  
     222A      6.269274   223A      6.318781   224A      6.326767  
     225A      6.586506   226A      6.627056   227A      6.641922  
     228A      6.778555   229A      6.887390   230A      7.010912  
     231A      7.017933   232A      7.164307   233A      7.311700  
     234A      7.328044   235A      7.345101   236A      7.445373  
     237A      7.546884   238A      7.672178   239A      7.712127  
     240A      7.788537   241A      7.805713   242A      7.816648  
     243A      8.005134   244A      8.041216   245A      8.097110  
     246A      8.103151   247A      8.169715   248A      8.177638  
     249A      8.241490   250A      8.311027   251A      8.693001  
     252A      8.699075   253A      8.729347   254A      8.747876  
     255A      8.853494   256A      9.714180   257A      9.786468  
     258A      9.912198   259A      9.933162   260A      9.995468  
     261A     10.033479   262A     10.178379   263A     10.198870  
     264A     11.040054   265A     11.122051   266A     11.767460  
     267A     11.799534   268A     12.046425   269A     12.166937  
     270A     13.383683   271A     13.423278   272A     13.837182  
     273A     13.853428   274A     17.037008   275A     64.309067  
     276A     64.720955  

    Final Occupation by Irrep:
              A 
    DOCC [     5 ]
    NA   [     5 ]
    NB   [     5 ]

  @RHF Final Energy:   -76.05973398691424

   => Energetics <=

    Nuclear Repulsion Energy =              9.0969818455569076
    One-Electron Energy =                -122.8785767825221598
    Two-Electron Energy =                  37.7218609500510098
    Total Energy =                        -76.0597339869142388

Computation Completed


Properties will be evaluated at   0.000000,   0.000000,   0.000000 [a0]

Properties computed using the SCF density matrix


 Multipole Moments:

 ------------------------------------------------------------------------------------
     Multipole            Electronic (a.u.)      Nuclear  (a.u.)        Total (a.u.)
 ------------------------------------------------------------------------------------

 L = 1.  Multiply by 2.5417464519 to convert [e a0] to [Debye]
 Dipole X            :        -59.5200949           59.3263369           -0.1937579
 Dipole Y            :        -17.6765295           18.3949739            0.7184443
 Dipole Z            :         35.1194870          -34.9671707            0.1523163
 Magnitude           :                                                    0.7595424

 ------------------------------------------------------------------------------------

*** tstop() called on d-19-15-2 at Mon Sep 18 10:32:50 2023
Module time:
	user time   =      72.51 seconds =       1.21 minutes
	system time =       3.05 seconds =       0.05 minutes
	total time  =         78 seconds =       1.30 minutes
Total time:
	user time   =   46507.22 seconds =     775.12 minutes
	system time =   23095.23 seconds =     384.92 minutes
	total time  =      78266 seconds =    1304.43 minutes
 MINTS: Wrapper to libmints.
   by Justin Turney

   Calculation information:
      Number of threads:                 1
      Number of atoms:                   9
      Number of AO shells:              96
      Number of SO shells:              96
      Number of primitives:            156
      Number of atomic orbitals:       315
      Number of basis functions:       276

      Number of irreps:                  1
      Integral cutoff                 1.00e-12
      Number of functions per irrep: [ 276 ]

 OEINTS: Overlap, kinetic, potential, dipole, and quadrupole integrals
         stored in file 35.

      Computing two-electron integrals...done
      Computed 522316300 non-zero two-electron integrals.
        Stored in file 33.


*** tstart() called on d-19-15-2
*** at Mon Sep 18 10:33:57 2023


	Wfn Parameters:
	--------------------
	Wavefunction         = CCSD_T
	Number of irreps     = 1
	Number of MOs        = 276
	Number of active MOs = 276
	AO-Basis             = NONE
	Semicanonical        = false
	Reference            = RHF
	Print Level          = 1

	IRREP	# MOs	# FZDC	# DOCC	# SOCC	# VIRT	# FZVR
	-----	-----	------	------	------	------	------
	 A	   276	    0	    5	    0	    271	    0
	Transforming integrals...
	IWL integrals will be deleted.
	(OO|OO)...
	Presorting SO-basis two-electron integrals.
	Sorting File: SO Ints (nn|nn) nbuckets = 1
	Constructing frozen core operators
	Starting first half-transformation.
	Sorting half-transformed integrals.
	First half integral transformation complete.
	Starting second half-transformation.
	Two-electron integral transformation complete.
	(OO|OV)...
	Starting second half-transformation.
	Two-electron integral transformation complete.
	(OO|VV)...
	Starting second half-transformation.
	Two-electron integral transformation complete.
	(OV|OO)...
	Starting first half-transformation.
	Sorting half-transformed integrals.
	First half integral transformation complete.
	Starting second half-transformation.
	Two-electron integral transformation complete.
	(OV|OV)...
	Starting second half-transformation.
	Two-electron integral transformation complete.
	(OV|VV)...
	Starting second half-transformation.
	Two-electron integral transformation complete.
	(VV|OO)...
	Starting first half-transformation.
	Sorting half-transformed integrals.
	First half integral transformation complete.
	Starting second half-transformation.
	Two-electron integral transformation complete.
	(VV|OV)...
	Starting second half-transformation.
	Two-electron integral transformation complete.
	(VV|VV)...
	Starting second half-transformation.
	Two-electron integral transformation complete.
	Frozen core energy     =      0.00000000000000

	Size of irrep 0 of <ab|cd> integrals:   5393.580 (MW) /  43148.644 (MB)
	Total:                                  5393.580 (MW) /  43148.644 (MB)

	Size of irrep 0 of <ia|bc> integrals:     99.513 (MW) /    796.100 (MB)
	Total:                                    99.513 (MW) /    796.100 (MB)

	Size of irrep 0 of tijab amplitudes:       1.836 (MW) /     14.688 (MB)
	Total:                                     1.836 (MW) /     14.688 (MB)

	Nuclear Rep. energy          =      9.09698184555691
	SCF energy                   =    -76.05973398691424
	One-electron energy          =   -122.87857679079642
	Two-electron energy          =     37.72186095832534
	Reference energy             =    -76.05973398691415

*** tstop() called on d-19-15-2 at Mon Sep 18 10:50:20 2023
Module time:
	user time   =     523.83 seconds =       8.73 minutes
	system time =     325.00 seconds =       5.42 minutes
	total time  =        983 seconds =      16.38 minutes
Total time:
	user time   =   47074.35 seconds =     784.57 minutes
	system time =   23433.61 seconds =     390.56 minutes
	total time  =      79316 seconds =    1321.93 minutes
            **************************
            *                        *
            *        CCENERGY        *
            *                        *
            **************************

    Nuclear Rep. energy (wfn)     =    9.096981845556908
    SCF energy          (wfn)     =  -76.059733986914239
    Reference energy    (file100) =  -76.059733986914154

    Input parameters:
    -----------------
    Wave function   =     CCSD_T
    Reference wfn   =     RHF
    Brueckner       =     No
    Memory (Mbytes) =     20000.0
    Maxiter         =     50
    R_Convergence   =     1.0e-07
    E_Convergence   =     1.0e-10
    Restart         =     Yes
    DIIS            =     Yes
    AO Basis        =     NONE
    ABCD            =     NEW
    Cache Level     =     2
    Cache Type      =     LOW
    Print Level     =     1
    Num. of threads =     1
    # Amps to Print =     10
    Print MP2 Amps? =     No
    Analyze T2 Amps =     No
    Print Pair Ener =     No
    Local CC        =     No
    SCS-MP2         =     False
    SCSN-MP2        =     False
    SCS-CCSD        =     False

MP2 correlation energy -0.2850980629358697
                Solving CC Amplitude Equations
                ------------------------------
  Iter             Energy              RMS        T1Diag      D1Diag    New D1Diag    D2Diag
  ----     ---------------------    ---------   ----------  ----------  ----------   --------
     0        -0.285098062935870    0.000e+00    0.000000    0.000000    0.000000    0.118124
     1        -0.283374003461614    3.560e-02    0.007620    0.017109    0.017109    0.120565
     2        -0.288432784512235    1.255e-02    0.007464    0.016890    0.016890    0.125029
     3        -0.289783662151785    4.913e-03    0.008655    0.020109    0.020109    0.127164
     4        -0.289653734505322    1.073e-03    0.008811    0.020571    0.020571    0.127339
     5        -0.289662605665393    4.095e-04    0.008896    0.020862    0.020862    0.127388
     6        -0.289670678150301    1.139e-04    0.008919    0.020949    0.020949    0.127386
     7        -0.289669196897080    4.143e-05    0.008925    0.020973    0.020973    0.127377
     8        -0.289668427313605    1.287e-05    0.008926    0.020980    0.020980    0.127375
     9        -0.289668536641173    4.655e-06    0.008927    0.020982    0.020982    0.127375
    10        -0.289668351510611    1.715e-06    0.008927    0.020983    0.020983    0.127375
    11        -0.289668331147798    6.176e-07    0.008927    0.020983    0.020983    0.127375
    12        -0.289668321667133    2.587e-07    0.008927    0.020982    0.020982    0.127375
    13        -0.289668316667546    9.200e-08    0.008927    0.020982    0.020982    0.127375
    14        -0.289668316215010    3.255e-08    0.008927    0.020982    0.020982    0.127375
    15        -0.289668316447882    1.116e-08    0.008927    0.020982    0.020982    0.127375
    16        -0.289668316425794    4.109e-09    0.008927    0.020982    0.020982    0.127375
    17        -0.289668316416902    1.529e-09    0.008927    0.020982    0.020982    0.127375

    Iterations converged.


    Largest TIA Amplitudes:
              4  32        -0.0095395973
              4  13        -0.0087563761
              4  10        -0.0082087467
              4   2        -0.0053965372
              3   6         0.0050306522
              3  25         0.0045117444
              4  11         0.0043501107
              3   7        -0.0040893664
              4  24        -0.0039072060
              2 121         0.0038778901

    Largest TIjAb Amplitudes:
      4   4  71  71        -0.0125700646
      2   2  44  44        -0.0121495599
      4   4  32  71        -0.0091417927
      4   4  71  32        -0.0091417927
      4   4  45  45        -0.0086580651
      4   4  32  32        -0.0084537207
      4   4  13  71        -0.0072023986
      4   4  71  13        -0.0072023986
      0   0 268 268        -0.0068392264
      3   3  44  44        -0.0065767138

    SCF energy       (wfn)                    =  -76.059733986914239
    Reference energy (file100)                =  -76.059733986914154

    Opposite-spin MP2 correlation energy      =   -0.216587009723293
    Same-spin MP2 correlation energy          =   -0.068511053212577
    Singles MP2 correlation energy            =   -0.000000000000000
    MP2 correlation energy                    =   -0.285098062935870
      * MP2 total energy                      =  -76.344832049850027

    Opposite-spin CCSD correlation energy     =   -0.228628263412016
    Same-spin CCSD correlation energy         =   -0.061040053004885
    Singles CCSD correlation energy           =    0.000000000000000
    CCSD correlation energy                   =   -0.289668316416902
      * CCSD total energy                     =  -76.349402303331061

            **************************
            *                        *
            *        CCTRIPLES       *
            *                        *
            **************************


    Wave function   =    CCSD_T
    Reference wfn   =      RHF

    Nuclear Rep. energy (wfn)                =    9.096981845556908
    SCF energy          (wfn)                =  -76.059733986914239
    Reference energy    (file100)            =  -76.059733986914154
    CCSD energy         (file100)            =   -0.289668316416902
    Total CCSD energy   (file100)            =  -76.349402303331061

    Number of ijk index combinations:               35
    Memory available in words               :      2500000000
    Approx. words needed per explicit thread:        79610044
    Number of threads for explicit ijk threading:    1

    MKL num_threads set to 1 for explicit threading.

    (T) energy                                =   -0.008869648434262
      * CCSD(T) total energy                  =  -76.358271951765317


    Psi4 stopped on: Monday, 18 September 2023 11:03AM
    Psi4 wall time for execution: 0:32:04.00


    -----------------------------------------------------------------------
          Psi4: An Open-Source Ab Initio Electronic Structure Package
                               Psi4 1.7 release

                         Git: Rev {HEAD} 6ce35a5 


    D. G. A. Smith, L. A. Burns, A. C. Simmonett, R. M. Parrish,
    M. C. Schieber, R. Galvelis, P. Kraus, H. Kruse, R. Di Remigio,
    A. Alenaizan, A. M. James, S. Lehtola, J. P. Misiewicz, M. Scheurer,
    R. A. Shaw, J. B. Schriber, Y. Xie, Z. L. Glick, D. A. Sirianni,
    J. S. O'Brien, J. M. Waldrop, A. Kumar, E. G. Hohenstein,
    B. P. Pritchard, B. R. Brooks, H. F. Schaefer III, A. Yu. Sokolov,
    K. Patkowski, A. E. DePrince III, U. Bozkaya, R. A. King,
    F. A. Evangelista, J. M. Turney, T. D. Crawford, C. D. Sherrill,
    J. Chem. Phys. 152(18) 184108 (2020). https://doi.org/10.1063/5.0006002

                            Additional Code Authors
    E. T. Seidl, C. L. Janssen, E. F. Valeev, M. L. Leininger,
    J. F. Gonthier, R. M. Richard, H. R. McAlexander, M. Saitow, X. Wang,
    P. Verma, M. H. Lechner, A. Jiang, S. Behnle, A. G. Heide,
    M. F. Herbst, and D. L. Poole

             Previous Authors, Complete List of Code Contributors,
                       and Citations for Specific Modules
    https://github.com/psi4/psi4/blob/master/codemeta.json
    https://github.com/psi4/psi4/graphs/contributors
    http://psicode.org/psi4manual/master/introduction.html#citing-psifour

    -----------------------------------------------------------------------


    Psi4 started on: Sunday, 17 September 2023 12:48PM

    Process ID: 258105
    Host:       d-19-15-2
    PSIDATADIR: /home/gridsan/kfisher/.conda/envs/p4env/share/psi4
    Memory:     18.6 GiB
    Threads:    1
    
  ==> Input QCSchema <==

--------------------------------------------------------------------------
{'driver': 'energy',
 'extras': {'psiapi': True, 'wfn_qcvars_only': True},
 'id': None,
 'keywords': {'D_CONVERGENCE': 1e-10, 'E_CONVERGENCE': 1e-10, 'function_kwargs': {}},
 'model': {'basis': 'aug-cc-pvtz', 'method': 'ccsd(t)'},
 'molecule': {'atom_labels': ['', '', '', '', '', '', '', '', ''],
              'atomic_numbers': [1, 1, 8, 1, 1, 8, 1, 1, 8],
              'fix_com': True,
              'fix_orientation': True,
              'fix_symmetry': 'c1',
              'fragment_charges': [0.0, 0.0, 0.0],
              'fragment_multiplicities': [1, 1, 1],
              'fragments': [[0, 1, 2], [3, 4, 5], [6, 7, 8]],
              'geometry': [1.8482832032045564, 4.731014317170273, -7.990675703222834, 1.0081639368493027,
                           2.355881385030847, -6.390948630834015, 1.8746355096131109, 4.031888707562887,
                           -6.324247629187875, 6.689770437237563, 2.6766848258764226, -2.2144622186513105,
                           4.737047683565545, 2.625455371067369, -4.434821743416859, 5.9874398521214, 1.63660420845311,
                           -3.539735843175062, 9.4672772541677, 6.25728191470608, 0.8720680155816128, 7.775399161257309,
                           4.274877743007549, 2.254691294225155, 7.768500621550017, 5.616999428672693,
                           0.9830497223063643],
              'mass_numbers': [1, 1, 16, 1, 1, 16, 1, 1, 16],
              'masses': [1.00782503223, 1.00782503223, 15.99491461957, 1.00782503223, 1.00782503223, 15.99491461957,
                         1.00782503223, 1.00782503223, 15.99491461957],
              'molecular_charge': 0.0,
              'molecular_multiplicity': 1,
              'name': 'H6O3',
              'provenance': {'creator': 'QCElemental',
                             'routine': 'qcelemental.molparse.from_string',
                             'version': 'v0.25.1'},
              'real': [False, False, False, True, True, True, True, True, True],
              'schema_name': 'qcschema_molecule',
              'schema_version': 2,
              'symbols': ['H', 'H', 'O', 'H', 'H', 'O', 'H', 'H', 'O'],
              'validated': True},
 'protocols': {'stdout': True},
 'provenance': {'creator': 'QCElemental', 'routine': 'qcelemental.models.results', 'version': 'v0.25.1'},
 'schema_name': 'qcschema_input',
 'schema_version': 1}
--------------------------------------------------------------------------

Scratch directory: /home/gridsan/kfisher/scratch/

*** tstart() called on d-19-15-2
*** at Mon Sep 18 11:03:36 2023

   => Loading Basis Set <=

    Name: AUG-CC-PVTZ
    Role: ORBITAL
    Keyword: BASIS
    atoms 1-2, 4-5, 7-8 entry H          line    40 file /home/gridsan/kfisher/.conda/envs/p4env/share/psi4/basis/aug-cc-pvtz.gbs 
    atoms 3, 6, 9       entry O          line   331 file /home/gridsan/kfisher/.conda/envs/p4env/share/psi4/basis/aug-cc-pvtz.gbs 


         ---------------------------------------------------------
                                   SCF
               by Justin Turney, Rob Parrish, Andy Simmonett
                          and Daniel G. A. Smith
                              RHF Reference
                        1 Threads,  19073 MiB Core
         ---------------------------------------------------------

  ==> Geometry <==

    Molecular point group: c1
    Full point group: C1

    Geometry (in Bohr), charge = 0, multiplicity = 1:

       Center              X                  Y                   Z               Mass       
    ------------   -----------------  -----------------  -----------------  -----------------
      Gh(H)           1.848283203205     4.731014317170    -7.990675703223     1.007825032230
      Gh(H)           1.008163936849     2.355881385031    -6.390948630834     1.007825032230
      Gh(O)           1.874635509613     4.031888707563    -6.324247629188    15.994914619570
         H            6.689770437238     2.676684825876    -2.214462218651     1.007825032230
         H            4.737047683566     2.625455371067    -4.434821743417     1.007825032230
         O            5.987439852121     1.636604208453    -3.539735843175    15.994914619570
         H            9.467277254168     6.257281914706     0.872068015582     1.007825032230
         H            7.775399161257     4.274877743008     2.254691294225     1.007825032230
         O            7.768500621550     5.616999428673     0.983049722306    15.994914619570

  Running in c1 symmetry.

  Rotational constants: A =      0.06433  B =      0.02065  C =      0.01679 [cm^-1]
  Rotational constants: A =   1928.62339  B =    619.15287  C =    503.40988 [MHz]
  Nuclear repulsion =   34.251590568624799

  Charge       = 0
  Multiplicity = 1
  Electrons    = 20
  Nalpha       = 10
  Nbeta        = 10

  ==> Algorithm <==

  SCF Algorithm Type is PK.
  DIIS enabled.
  MOM disabled.
  Fractional occupation disabled.
  Guess Type is SAD.
  Energy threshold   = 1.00e-10
  Density threshold  = 1.00e-10
  Integral threshold = 1.00e-12

  ==> Primary Basis <==

  Basis Set: AUG-CC-PVTZ
    Blend: AUG-CC-PVTZ
    Number of shells: 96
    Number of basis functions: 276
    Number of Cartesian functions: 315
    Spherical Harmonics?: true
    Max angular momentum: 3

  ==> Integral Setup <==

  Using in-core PK algorithm.
   Calculation information:
      Number of atoms:                   9
      Number of AO shells:              96
      Number of primitives:            156
      Number of atomic orbitals:       315
      Number of basis functions:       276

      Integral cutoff                 1.00e-12
      Number of threads:                 1

  Performing in-core PK
  Using 1461265302 doubles for integral storage.
  We computed 8690381 shell quartets total.
  Whereas there are 10841496 unique shell quartets.

  ==> DiskJK: Disk-Based J/K Matrices <==

    J tasked:                  Yes
    K tasked:                  Yes
    wK tasked:                  No
    Memory [MiB]:            14305
    Schwarz Cutoff:          1E-12

    OpenMP threads:              1

  Minimum eigenvalue in the overlap matrix is 1.6624807431E-04.
  Reciprocal condition number of the overlap matrix is 1.7367775616E-05.
    Using symmetric orthogonalization.

  ==> Pre-Iterations <==

  SCF Guess: Superposition of Atomic Densities via on-the-fly atomic UHF (no occupation information).

   -------------------------
    Irrep   Nso     Nmo    
   -------------------------
     A        276     276 
   -------------------------
    Total     276     276
   -------------------------

  ==> Iterations <==

                        Total Energy        Delta E     RMS |[F,P]|

   @RHF iter SAD:  -150.96077466857099   -1.50961e+02   0.00000e+00 
   @RHF iter   1:  -151.96336822869625   -1.00259e+00   2.34362e-03 DIIS/ADIIS
   @RHF iter   2:  -152.06493715825590   -1.01569e-01   1.57291e-03 DIIS/ADIIS
   @RHF iter   3:  -152.12273695188958   -5.77998e-02   1.12023e-04 DIIS/ADIIS
   @RHF iter   4:  -152.12355051102099   -8.13559e-04   2.64966e-05 DIIS
   @RHF iter   5:  -152.12360161096919   -5.10999e-05   6.43069e-06 DIIS
   @RHF iter   6:  -152.12360623455453   -4.62359e-06   1.61787e-06 DIIS
   @RHF iter   7:  -152.12360648153299   -2.46978e-07   7.50513e-07 DIIS
   @RHF iter   8:  -152.12360650771080   -2.61778e-08   1.45766e-07 DIIS
   @RHF iter   9:  -152.12360650962580   -1.91500e-09   2.20575e-08 DIIS
   @RHF iter  10:  -152.12360650967113   -4.53326e-11   5.89755e-09 DIIS
   @RHF iter  11:  -152.12360650967304   -1.90425e-12   8.52341e-10 DIIS
   @RHF iter  12:  -152.12360650967358   -5.40012e-13   1.70295e-10 DIIS
   @RHF iter  13:  -152.12360650967349    8.52651e-14   4.28951e-11 DIIS
  Energy and wave function converged.


  ==> Post-Iterations <==

    Orbital Energies [Eh]
    ---------------------

    Doubly Occupied:                                                      

       1A    -20.587492     2A    -20.548579     3A     -1.365234  
       4A     -1.328736     5A     -0.734985     6A     -0.702862  
       7A     -0.598870     8A     -0.561049     9A     -0.527289  
      10A     -0.491427  

    Virtual:                                                              

      11A      0.022887    12A      0.034130    13A      0.043957  
      14A      0.058707    15A      0.067445    16A      0.079725  
      17A      0.108121    18A      0.124225    19A      0.144677  
      20A      0.155131    21A      0.160104    22A      0.172436  
      23A      0.179583    24A      0.181770    25A      0.195114  
      26A      0.211366    27A      0.219204    28A      0.228982  
      29A      0.233869    30A      0.253460    31A      0.265423  
      32A      0.276159    33A      0.284379    34A      0.299077  
      35A      0.311678    36A      0.329158    37A      0.350105  
      38A      0.359943    39A      0.365717    40A      0.380029  
      41A      0.389749    42A      0.393926    43A      0.400234  
      44A      0.406193    45A      0.417365    46A      0.425777  
      47A      0.445960    48A      0.453639    49A      0.460025  
      50A      0.510336    51A      0.579990    52A      0.590942  
      53A      0.606314    54A      0.641762    55A      0.666189  
      56A      0.678202    57A      0.696255    58A      0.716345  
      59A      0.724862    60A      0.745046    61A      0.753872  
      62A      0.764233    63A      0.769101    64A      0.787205  
      65A      0.796486    66A      0.808438    67A      0.814754  
      68A      0.829144    69A      0.844523    70A      0.855960  
      71A      0.872757    72A      0.883718    73A      0.896219  
      74A      0.903693    75A      0.913521    76A      0.920839  
      77A      0.936176    78A      0.943696    79A      0.959296  
      80A      0.977999    81A      0.983153    82A      0.988010  
      83A      0.995003    84A      1.009462    85A      1.018087  
      86A      1.024657    87A      1.040662    88A      1.056013  
      89A      1.069367    90A      1.092579    91A      1.103387  
      92A      1.114105    93A      1.120055    94A      1.142032  
      95A      1.158660    96A      1.167657    97A      1.178425  
      98A      1.188799    99A      1.211261   100A      1.219362  
     101A      1.237004   102A      1.265309   103A      1.293612  
     104A      1.312721   105A      1.338845   106A      1.365182  
     107A      1.424205   108A      1.434287   109A      1.464124  
     110A      1.510292   111A      1.533829   112A      1.549179  
     113A      1.555259   114A      1.601304   115A      1.626455  
     116A      1.647736   117A      1.673934   118A      1.725563  
     119A      1.746802   120A      1.782472   121A      1.789513  
     122A      1.795123   123A      1.832629   124A      1.844655  
     125A      1.864722   126A      1.905079   127A      1.987675  
     128A      2.020384   129A      2.043972   130A      2.064891  
     131A      2.126541   132A      2.258583   133A      2.293476  
     134A      2.333543   135A      2.349828   136A      2.368932  
     137A      2.383474   138A      2.397873   139A      2.426559  
     140A      2.450248   141A      2.464818   142A      2.499785  
     143A      2.500932   144A      2.522550   145A      2.543418  
     146A      2.557095   147A      2.567305   148A      2.573312  
     149A      2.597401   150A      2.632104   151A      2.653918  
     152A      2.680965   153A      2.706933   154A      2.740134  
     155A      2.752488   156A      2.768148   157A      2.800793  
     158A      2.846379   159A      2.864791   160A      2.874974  
     161A      2.901504   162A      2.950231   163A      3.028676  
     164A      3.050118   165A      3.072503   166A      3.165531  
     167A      3.170060   168A      3.207716   169A      3.260548  
     170A      3.370900   171A      3.422801   172A      3.539460  
     173A      3.692941   174A      3.714083   175A      3.776864  
     176A      3.894327   177A      4.001220   178A      4.079475  
     179A      4.101331   180A      4.200727   181A      4.222752  
     182A      4.250617   183A      4.269955   184A      4.288822  
     185A      4.316832   186A      4.343330   187A      4.374365  
     188A      4.390526   189A      4.407924   190A      4.429476  
     191A      4.449855   192A      4.465500   193A      4.479403  
     194A      4.533557   195A      4.541064   196A      4.585506  
     197A      4.607180   198A      4.621843   199A      4.651910  
     200A      4.726081   201A      4.737842   202A      4.808385  
     203A      4.825263   204A      4.900307   205A      4.958042  
     206A      5.027547   207A      5.072675   208A      5.101973  
     209A      5.131234   210A      5.154555   211A      5.176340  
     212A      5.203587   213A      5.266465   214A      5.285881  
     215A      5.302630   216A      5.404771   217A      5.455419  
     218A      5.471386   219A      5.534492   220A      5.555999  
     221A      5.575875   222A      5.732456   223A      5.750310  
     224A      5.782000   225A      5.847724   226A      6.163428  
     227A      6.177596   228A      6.279098   229A      6.334516  
     230A      6.532405   231A      6.601181   232A      6.639017  
     233A      6.723398   234A      6.794638   235A      6.866916  
     236A      6.907269   237A      7.026813   238A      7.158756  
     239A      7.179959   240A      7.267588   241A      7.307405  
     242A      7.320894   243A      7.324967   244A      7.331659  
     245A      7.351755   246A      7.363858   247A      7.374901  
     248A      7.469127   249A      7.524142   250A      7.569949  
     251A      7.721897   252A      7.813340   253A      7.840139  
     254A      7.895194   255A      7.914220   256A      8.027240  
     257A      8.057908   258A      8.108381   259A      8.178400  
     260A      8.319787   261A      8.706673   262A      8.738556  
     263A      8.773171   264A      8.871760   265A      9.793178  
     266A      9.940038   267A     10.041717   268A     10.206354  
     269A     11.048543   270A     11.776171   271A     12.167782  
     272A     13.392076   273A     13.861462   274A     15.598574  
     275A     17.070711   276A     64.716569  

    Final Occupation by Irrep:
              A 
    DOCC [    10 ]
    NA   [    10 ]
    NB   [    10 ]

  @RHF Final Energy:  -152.12360650967349

   => Energetics <=

    Nuclear Repulsion Energy =             34.2515905686247990
    One-Electron Energy =                -277.8573445689097525
    Two-Electron Energy =                  91.4821474906114247
    Total Energy =                       -152.1236065096735217

Computation Completed


Properties will be evaluated at   0.000000,   0.000000,   0.000000 [a0]

Properties computed using the SCF density matrix


 Multipole Moments:

 ------------------------------------------------------------------------------------
     Multipole            Electronic (a.u.)      Nuclear  (a.u.)        Total (a.u.)
 ------------------------------------------------------------------------------------

 L = 1.  Multiply by 2.5417464519 to convert [e a0] to [Debye]
 Dipole X            :       -138.2691556          138.7170183            0.4478627
 Dipole Y            :        -73.3085940           73.8631290            0.5545350
 Dipole Z            :         24.6262107          -23.9760136            0.6501971
 Magnitude           :                                                    0.9648037

 ------------------------------------------------------------------------------------

*** tstop() called on d-19-15-2 at Mon Sep 18 11:05:07 2023
Module time:
	user time   =      77.35 seconds =       1.29 minutes
	system time =       6.62 seconds =       0.11 minutes
	total time  =         91 seconds =       1.52 minutes
Total time:
	user time   =   47427.23 seconds =     790.45 minutes
	system time =   23773.94 seconds =     396.23 minutes
	total time  =      80203 seconds =    1336.72 minutes
 MINTS: Wrapper to libmints.
   by Justin Turney

   Calculation information:
      Number of threads:                 1
      Number of atoms:                   9
      Number of AO shells:              96
      Number of SO shells:              96
      Number of primitives:            156
      Number of atomic orbitals:       315
      Number of basis functions:       276

      Number of irreps:                  1
      Integral cutoff                 1.00e-12
      Number of functions per irrep: [ 276 ]

 OEINTS: Overlap, kinetic, potential, dipole, and quadrupole integrals
         stored in file 35.

      Computing two-electron integrals...done
      Computed 522316300 non-zero two-electron integrals.
        Stored in file 33.


*** tstart() called on d-19-15-2
*** at Mon Sep 18 11:06:06 2023


	Wfn Parameters:
	--------------------
	Wavefunction         = CCSD_T
	Number of irreps     = 1
	Number of MOs        = 276
	Number of active MOs = 276
	AO-Basis             = NONE
	Semicanonical        = false
	Reference            = RHF
	Print Level          = 1

	IRREP	# MOs	# FZDC	# DOCC	# SOCC	# VIRT	# FZVR
	-----	-----	------	------	------	------	------
	 A	   276	    0	    10	    0	    266	    0
	Transforming integrals...
	IWL integrals will be deleted.
	(OO|OO)...
	Presorting SO-basis two-electron integrals.
	Sorting File: SO Ints (nn|nn) nbuckets = 1
	Constructing frozen core operators
	Starting first half-transformation.
	Sorting half-transformed integrals.
	First half integral transformation complete.
	Starting second half-transformation.
	Two-electron integral transformation complete.
	(OO|OV)...
	Starting second half-transformation.
	Two-electron integral transformation complete.
	(OO|VV)...
	Starting second half-transformation.
	Two-electron integral transformation complete.
	(OV|OO)...
	Starting first half-transformation.
	Sorting half-transformed integrals.
	First half integral transformation complete.
	Starting second half-transformation.
	Two-electron integral transformation complete.
	(OV|OV)...
	Starting second half-transformation.
	Two-electron integral transformation complete.
	(OV|VV)...
	Starting second half-transformation.
	Two-electron integral transformation complete.
	(VV|OO)...
	Starting first half-transformation.
	Sorting half-transformed integrals.
	First half integral transformation complete.
	Starting second half-transformation.
	Two-electron integral transformation complete.
	(VV|OV)...
	Starting second half-transformation.
	Two-electron integral transformation complete.
	(VV|VV)...
	Starting second half-transformation.
	Two-electron integral transformation complete.
	Frozen core energy     =      0.00000000000000

	Size of irrep 0 of <ab|cd> integrals:   5006.412 (MW) /  40051.292 (MB)
	Total:                                  5006.412 (MW) /  40051.292 (MB)

	Size of irrep 0 of <ia|bc> integrals:    188.211 (MW) /   1505.688 (MB)
	Total:                                   188.211 (MW) /   1505.688 (MB)

	Size of irrep 0 of tijab amplitudes:       7.076 (MW) /     56.605 (MB)
	Total:                                     7.076 (MW) /     56.605 (MB)

	Nuclear Rep. energy          =     34.25159056862480
	SCF energy                   =   -152.12360650967349
	One-electron energy          =   -277.85734459544250
	Two-electron energy          =     91.48214751714380
	Reference energy             =   -152.12360650967389

*** tstop() called on d-19-15-2 at Mon Sep 18 11:26:07 2023
Module time:
	user time   =     524.21 seconds =       8.74 minutes
	system time =     388.27 seconds =       6.47 minutes
	total time  =       1201 seconds =      20.02 minutes
Total time:
	user time   =   47994.92 seconds =     799.92 minutes
	system time =   24175.84 seconds =     402.93 minutes
	total time  =      81463 seconds =    1357.72 minutes
            **************************
            *                        *
            *        CCENERGY        *
            *                        *
            **************************

    Nuclear Rep. energy (wfn)     =   34.251590568624799
    SCF energy          (wfn)     = -152.123606509673493
    Reference energy    (file100) = -152.123606509673891

    Input parameters:
    -----------------
    Wave function   =     CCSD_T
    Reference wfn   =     RHF
    Brueckner       =     No
    Memory (Mbytes) =     20000.0
    Maxiter         =     50
    R_Convergence   =     1.0e-07
    E_Convergence   =     1.0e-10
    Restart         =     Yes
    DIIS            =     Yes
    AO Basis        =     NONE
    ABCD            =     NEW
    Cache Level     =     2
    Cache Type      =     LOW
    Print Level     =     1
    Num. of threads =     1
    # Amps to Print =     10
    Print MP2 Amps? =     No
    Analyze T2 Amps =     No
    Print Pair Ener =     No
    Local CC        =     No
    SCS-MP2         =     False
    SCSN-MP2        =     False
    SCS-CCSD        =     False

MP2 correlation energy -0.5706550349377806
                Solving CC Amplitude Equations
                ------------------------------
  Iter             Energy              RMS        T1Diag      D1Diag    New D1Diag    D2Diag
  ----     ---------------------    ---------   ----------  ----------  ----------   --------
     0        -0.570655034937781    0.000e+00    0.000000    0.000000    0.000000    0.118986
     1        -0.567005725032733    5.053e-02    0.007700    0.017957    0.017957    0.121114
     2        -0.577176739068038    1.773e-02    0.007572    0.017737    0.017737    0.125705
     3        -0.579869394609172    7.009e-03    0.008807    0.021246    0.021246    0.127880
     4        -0.579600343854773    1.515e-03    0.008972    0.021733    0.021733    0.128074
     5        -0.579621392420833    5.947e-04    0.009065    0.022076    0.022076    0.128133
     6        -0.579636603801506    1.601e-04    0.009090    0.022171    0.022171    0.128132
     7        -0.579632812565532    6.083e-05    0.009095    0.022198    0.022198    0.128123
     8        -0.579631292830373    1.923e-05    0.009097    0.022205    0.022205    0.128121
     9        -0.579631591787555    7.744e-06    0.009097    0.022208    0.022208    0.128121
    10        -0.579631128760122    3.288e-06    0.009098    0.022208    0.022208    0.128121
    11        -0.579631126224679    1.353e-06    0.009098    0.022208    0.022208    0.128121
    12        -0.579631103069632    6.436e-07    0.009098    0.022208    0.022208    0.128121
    13        -0.579631091793123    2.168e-07    0.009098    0.022208    0.022208    0.128121
    14        -0.579631091495503    7.555e-08    0.009098    0.022208    0.022208    0.128121
    15        -0.579631091879052    2.979e-08    0.009098    0.022208    0.022208    0.128121
[...]
  Nalpha       = 10
  Nbeta        = 10

  ==> Algorithm <==

  SCF Algorithm Type is PK.
  DIIS enabled.
  MOM disabled.
  Fractional occupation disabled.
  Guess Type is SAD.
  Energy threshold   = 1.00e-10
  Density threshold  = 1.00e-10
  Integral threshold = 1.00e-12

  ==> Primary Basis <==

  Basis Set: AUG-CC-PVTZ
    Blend: AUG-CC-PVTZ
    Number of shells: 64
    Number of basis functions: 184
    Number of Cartesian functions: 210
    Spherical Harmonics?: true
    Max angular momentum: 3

  ==> Integral Setup <==

  Using in-core PK algorithm.
   Calculation information:
      Number of atoms:                   6
      Number of AO shells:              64
      Number of primitives:            104
      Number of atomic orbitals:       210
      Number of basis functions:       184

      Integral cutoff                 1.00e-12
      Number of threads:                 1

  Performing in-core PK
  Using 289697420 doubles for integral storage.
  We computed 2009152 shell quartets total.
  Whereas there are 2164240 unique shell quartets.

  ==> DiskJK: Disk-Based J/K Matrices <==

    J tasked:                  Yes
    K tasked:                  Yes
    wK tasked:                  No
    Memory [MiB]:            14305
    Schwarz Cutoff:          1E-12

    OpenMP threads:              1

  Minimum eigenvalue in the overlap matrix is 2.5281578161E-04.
  Reciprocal condition number of the overlap matrix is 2.9602819670E-05.
    Using symmetric orthogonalization.

  ==> Pre-Iterations <==

  SCF Guess: Superposition of Atomic Densities via on-the-fly atomic UHF (no occupation information).

   -------------------------
    Irrep   Nso     Nmo    
   -------------------------
     A        184     184 
   -------------------------
    Total     184     184
   -------------------------

  ==> Iterations <==

                        Total Energy        Delta E     RMS |[F,P]|

   @RHF iter SAD:  -150.96077466857093   -1.50961e+02   0.00000e+00 
   @RHF iter   1:  -151.96332929725054   -1.00255e+00   3.51533e-03 DIIS/ADIIS
   @RHF iter   2:  -152.06488962723853   -1.01560e-01   2.35926e-03 DIIS/ADIIS
   @RHF iter   3:  -152.12268576837496   -5.77961e-02   1.69268e-04 DIIS/ADIIS
   @RHF iter   4:  -152.12350395822415   -8.18190e-04   3.96959e-05 DIIS
   @RHF iter   5:  -152.12355503989664   -5.10817e-05   9.64587e-06 DIIS
   @RHF iter   6:  -152.12355966627504   -4.62638e-06   2.41789e-06 DIIS
   @RHF iter   7:  -152.12355991280734   -2.46532e-07   1.11820e-06 DIIS
   @RHF iter   8:  -152.12355993849593   -2.56886e-08   2.18505e-07 DIIS
   @RHF iter   9:  -152.12355994040018   -1.90425e-09   3.29807e-08 DIIS
   @RHF iter  10:  -152.12355994044560   -4.54179e-11   8.82536e-09 DIIS
   @RHF iter  11:  -152.12355994044771   -2.10321e-12   1.27678e-09 DIIS
   @RHF iter  12:  -152.12355994044830   -5.96856e-13   2.54988e-10 DIIS
   @RHF iter  13:  -152.12355994044810    1.98952e-13   6.44027e-11 DIIS
  Energy and wave function converged.


  ==> Post-Iterations <==

    Orbital Energies [Eh]
    ---------------------

    Doubly Occupied:                                                      

       1A    -20.587502     2A    -20.548590     3A     -1.365241  
       4A     -1.328760     5A     -0.734992     6A     -0.702881  
       7A     -0.598877     8A     -0.561072     9A     -0.527294  
      10A     -0.491432  

    Virtual:                                                              

      11A      0.023702    12A      0.045446    13A      0.045785  
      14A      0.069526    15A      0.126269    16A      0.142608  
      17A      0.162066    18A      0.169051    19A      0.176306  
      20A      0.182976    21A      0.209827    22A      0.214327  
      23A      0.232553    24A      0.237511    25A      0.262833  
      26A      0.266679    27A      0.282246    28A      0.302801  
      29A      0.354098    30A      0.363679    31A      0.368602  
      32A      0.392924    33A      0.400147    34A      0.426509  
      35A      0.442959    36A      0.459926    37A      0.470754  
      38A      0.565763    39A      0.592051    40A      0.646844  
      41A      0.657870    42A      0.693340    43A      0.708875  
      44A      0.723884    45A      0.741580    46A      0.745757  
      47A      0.762064    48A      0.783081    49A      0.824389  
      50A      0.826812    51A      0.856203    52A      0.893307  
      53A      0.904608    54A      0.915166    55A      0.918599  
      56A      0.941116    57A      0.946720    58A      0.957402  
      59A      0.977783    60A      0.991135    61A      1.000329  
      62A      1.008050    63A      1.018620    64A      1.039556  
      65A      1.053960    66A      1.094531    67A      1.119286  
      68A      1.129641    69A      1.150456    70A      1.170421  
      71A      1.193393    72A      1.221020    73A      1.256014  
      74A      1.259443    75A      1.321677    76A      1.336728  
      77A      1.447713    78A      1.519262    79A      1.539054  
      80A      1.557747    81A      1.590686    82A      1.621133  
      83A      1.675420    84A      1.732438    85A      1.781174  
      86A      1.822308    87A      1.850463    88A      1.900240  
      89A      2.025857    90A      2.059031    91A      2.123845  
      92A      2.279405    93A      2.299207    94A      2.320296  
      95A      2.348346    96A      2.376094    97A      2.386540  
      98A      2.406151    99A      2.434781   100A      2.452438  
     101A      2.467623   102A      2.513666   103A      2.525991  
     104A      2.552844   105A      2.607929   106A      2.648194  
     107A      2.701451   108A      2.738419   109A      2.754802  
     110A      2.770535   111A      2.809478   112A      2.846159  
     113A      2.874999   114A      2.924572   115A      2.966050  
     116A      3.000131   117A      3.681843   118A      3.719405  
     119A      3.773654   120A      3.907003   121A      3.993523  
     122A      4.037039   123A      4.173493   124A      4.195612  
     125A      4.217469   126A      4.244652   127A      4.249811  
     128A      4.301827   129A      4.347508   130A      4.382139  
     131A      4.393532   132A      4.420018   133A      4.437731  
     134A      4.462501   135A      4.473737   136A      4.530220  
     137A      4.564582   138A      4.607618   139A      4.727598  
     140A      4.767260   141A      4.818492   142A      4.929223  
     143A      5.098462   144A      5.151039   145A      5.167070  
     146A      5.172093   147A      5.275920   148A      5.299058  
     149A      5.353253   150A      5.380959   151A      5.515196  
     152A      5.546537   153A      5.729432   154A      5.756230  
     155A      6.156921   156A      6.173943   157A      6.529962  
     158A      6.563943   159A      6.719776   160A      6.742708  
     161A      6.862752   162A      6.886399   163A      7.152259  
     164A      7.161741   165A      7.264269   166A      7.282313  
     167A      7.302178   168A      7.307596   169A      7.320167  
     170A      7.333821   171A      7.338611   172A      7.368014  
     173A      7.413032   174A      7.464197   175A      7.515127  
     176A      7.734214   177A      7.881498   178A      7.907356  
     179A      7.939368   180A      8.008977   181A      8.762505  
     182A      8.794473   183A     15.557438   184A     16.453571  

    Final Occupation by Irrep:
              A 
    DOCC [    10 ]
    NA   [    10 ]
    NB   [    10 ]

  @RHF Final Energy:  -152.12355994044810

   => Energetics <=

    Nuclear Repulsion Energy =             34.2515905686247990
    One-Electron Energy =                -277.8570199074441689
    Two-Electron Energy =                  91.4818693983712592
    Total Energy =                       -152.1235599404481036

Computation Completed


Properties will be evaluated at   0.000000,   0.000000,   0.000000 [a0]

Properties computed using the SCF density matrix


 Multipole Moments:

 ------------------------------------------------------------------------------------
     Multipole            Electronic (a.u.)      Nuclear  (a.u.)        Total (a.u.)
 ------------------------------------------------------------------------------------

 L = 1.  Multiply by 2.5417464519 to convert [e a0] to [Debye]
 Dipole X            :       -138.2690188          138.7170183            0.4479995
 Dipole Y            :        -73.3088506           73.8631290            0.5542783
 Dipole Z            :         24.6263657          -23.9760136            0.6503521
 Magnitude           :                                                    0.9648243

 ------------------------------------------------------------------------------------

*** tstop() called on d-19-15-2 at Mon Sep 18 16:51:36 2023
Module time:
	user time   =      16.50 seconds =       0.28 minutes
	system time =       0.42 seconds =       0.01 minutes
	total time  =         17 seconds =       0.28 minutes
Total time:
	user time   =   59372.00 seconds =     989.53 minutes
	system time =   30331.39 seconds =     505.52 minutes
	total time  =     100992 seconds =    1683.20 minutes
 MINTS: Wrapper to libmints.
   by Justin Turney

   Calculation information:
      Number of threads:                 1
      Number of atoms:                   6
      Number of AO shells:              64
      Number of SO shells:              64
      Number of primitives:            104
      Number of atomic orbitals:       210
      Number of basis functions:       184

      Number of irreps:                  1
      Integral cutoff                 1.00e-12
      Number of functions per irrep: [ 184 ]

 OEINTS: Overlap, kinetic, potential, dipole, and quadrupole integrals
         stored in file 35.

      Computing two-electron integrals...done
      Computed 128154745 non-zero two-electron integrals.
        Stored in file 33.


*** tstart() called on d-19-15-2
*** at Mon Sep 18 16:51:48 2023


	Wfn Parameters:
	--------------------
	Wavefunction         = CCSD_T
	Number of irreps     = 1
	Number of MOs        = 184
	Number of active MOs = 184
	AO-Basis             = NONE
	Semicanonical        = false
	Reference            = RHF
	Print Level          = 1

	IRREP	# MOs	# FZDC	# DOCC	# SOCC	# VIRT	# FZVR
	-----	-----	------	------	------	------	------
	 A	   184	    0	    10	    0	    174	    0
	Transforming integrals...
	IWL integrals will be deleted.
	(OO|OO)...
	Presorting SO-basis two-electron integrals.
	Sorting File: SO Ints (nn|nn) nbuckets = 1
	Constructing frozen core operators
	Starting first half-transformation.
	Sorting half-transformed integrals.
	First half integral transformation complete.
	Starting second half-transformation.
	Two-electron integral transformation complete.
	(OO|OV)...
	Starting second half-transformation.
	Two-electron integral transformation complete.
	(OO|VV)...
	Starting second half-transformation.
	Two-electron integral transformation complete.
	(OV|OO)...
	Starting first half-transformation.
	Sorting half-transformed integrals.
	First half integral transformation complete.
	Starting second half-transformation.
	Two-electron integral transformation complete.
	(OV|OV)...
	Starting second half-transformation.
	Two-electron integral transformation complete.
	(OV|VV)...
	Starting second half-transformation.
	Two-electron integral transformation complete.
	(VV|OO)...
	Starting first half-transformation.
	Sorting half-transformed integrals.
	First half integral transformation complete.
	Starting second half-transformation.
	Two-electron integral transformation complete.
	(VV|OV)...
	Starting second half-transformation.
	Two-electron integral transformation complete.
	(VV|VV)...
	Starting second half-transformation.
	Two-electron integral transformation complete.
	Frozen core energy     =      0.00000000000000

	Size of irrep 0 of <ab|cd> integrals:    916.636 (MW) /   7333.089 (MB)
	Total:                                   916.636 (MW) /   7333.089 (MB)

	Size of irrep 0 of <ia|bc> integrals:     52.680 (MW) /    421.442 (MB)
	Total:                                    52.680 (MW) /    421.442 (MB)

	Size of irrep 0 of tijab amplitudes:       3.028 (MW) /     24.221 (MB)
	Total:                                     3.028 (MW) /     24.221 (MB)

	Nuclear Rep. energy          =     34.25159056862480
	SCF energy                   =   -152.12355994044810
	One-electron energy          =   -277.85701993436265
	Two-electron energy          =     91.48186942528986
	Reference energy             =   -152.12355994044799

*** tstop() called on d-19-15-2 at Mon Sep 18 16:53:32 2023
Module time:
	user time   =      60.37 seconds =       1.01 minutes
	system time =      41.25 seconds =       0.69 minutes
	total time  =        104 seconds =       1.73 minutes
Total time:
	user time   =   59440.96 seconds =     990.68 minutes
	system time =   30375.47 seconds =     506.26 minutes
	total time  =     101108 seconds =    1685.13 minutes
            **************************
            *                        *
            *        CCENERGY        *
            *                        *
            **************************

    Nuclear Rep. energy (wfn)     =   34.251590568624799
    SCF energy          (wfn)     = -152.123559940448104
    Reference energy    (file100) = -152.123559940447990

    Input parameters:
    -----------------
    Wave function   =     CCSD_T
    Reference wfn   =     RHF
    Brueckner       =     No
    Memory (Mbytes) =     20000.0
    Maxiter         =     50
    R_Convergence   =     1.0e-07
    E_Convergence   =     1.0e-10
    Restart         =     Yes
    DIIS            =     Yes
    AO Basis        =     NONE
    ABCD            =     NEW
    Cache Level     =     2
    Cache Type      =     LOW
    Print Level     =     1
    Num. of threads =     1
    # Amps to Print =     10
    Print MP2 Amps? =     No
    Analyze T2 Amps =     No
    Print Pair Ener =     No
    Local CC        =     No
    SCS-MP2         =     False
    SCSN-MP2        =     False
    SCS-CCSD        =     False

MP2 correlation energy -0.5700571641352933
                Solving CC Amplitude Equations
                ------------------------------
  Iter             Energy              RMS        T1Diag      D1Diag    New D1Diag    D2Diag
  ----     ---------------------    ---------   ----------  ----------  ----------   --------
     0        -0.570057164135293    0.000e+00    0.000000    0.000000    0.000000    0.118982
     1        -0.566412073029412    5.053e-02    0.007704    0.017963    0.017963    0.121114
     2        -0.576579961522755    1.772e-02    0.007576    0.017743    0.017743    0.125706
     3        -0.579272569451837    7.004e-03    0.008813    0.021258    0.021258    0.127882
     4        -0.578999367330224    1.501e-03    0.008978    0.021744    0.021744    0.128073
     5        -0.579023381745448    5.832e-04    0.009071    0.022090    0.022090    0.128134
     6        -0.579037361536609    1.520e-04    0.009095    0.022181    0.022181    0.128131
     7        -0.579033238472068    5.712e-05    0.009100    0.022207    0.022207    0.128123
     8        -0.579031935496261    1.776e-05    0.009102    0.022214    0.022214    0.128121
     9        -0.579032255692763    7.481e-06    0.009102    0.022216    0.022216    0.128121
    10        -0.579031782986418    3.238e-06    0.009103    0.022217    0.022217    0.128121
    11        -0.579031795904488    1.294e-06    0.009103    0.022217    0.022217    0.128121
    12        -0.579031774125734    6.103e-07    0.009103    0.022216    0.022216    0.128121
    13        -0.579031764223367    2.022e-07    0.009102    0.022216    0.022216    0.128121
    14        -0.579031764687733    6.911e-08    0.009102    0.022216    0.022216    0.128121
    15        -0.579031765138803    2.739e-08    0.009102    0.022216    0.022216    0.128121
    16        -0.579031764877634    1.034e-08    0.009102    0.022216    0.022216    0.128121
    17        -0.579031764817596    4.133e-09    0.009102    0.022216    0.022216    0.128121
    18        -0.579031764825328    1.666e-09    0.009102    0.022216    0.022216    0.128121

    Iterations converged.


    Largest TIA Amplitudes:
              9   6         0.0103203309
              9   7         0.0103202142
              8   3         0.0078667069
              6   4        -0.0078439257
              9  17         0.0074108838
              9  22         0.0072484418
              8  12        -0.0072147804
              9  21        -0.0070023673
              7   5         0.0068879343
              8  16        -0.0062376909

    Largest TIjAb Amplitudes:
      4   4  25  25        -0.0209035667
      5   5  26  26        -0.0179016076
      4   4  28  28        -0.0117745745
      4   4   8  25        -0.0117695730
      4   4  25   8        -0.0117695730
      4   4  25  54        -0.0115634536
      4   4  54  25        -0.0115634536
      6   6  28  28        -0.0108801174
      5   5  26  53        -0.0103087894
      5   5  53  26        -0.0103087894

    SCF energy       (wfn)                    = -152.123559940448104
    Reference energy (file100)                = -152.123559940447990

    Opposite-spin MP2 correlation energy      =   -0.432431747708535
    Same-spin MP2 correlation energy          =   -0.137625416426758
    Singles MP2 correlation energy            =   -0.000000000000000
    MP2 correlation energy                    =   -0.570057164135293
      * MP2 total energy                      = -152.693617104583296

    Opposite-spin CCSD correlation energy     =   -0.456317066963317
    Same-spin CCSD correlation energy         =   -0.122714697862011
    Singles CCSD correlation energy           =    0.000000000000000
    CCSD correlation energy                   =   -0.579031764825328
      * CCSD total energy                     = -152.702591705273306

            **************************
            *                        *
            *        CCTRIPLES       *
            *                        *
            **************************


    Wave function   =    CCSD_T
    Reference wfn   =      RHF

    Nuclear Rep. energy (wfn)                =   34.251590568624799
    SCF energy          (wfn)                = -152.123559940448104
    Reference energy    (file100)            = -152.123559940447990
    CCSD energy         (file100)            =   -0.579031764825328
    Total CCSD energy   (file100)            = -152.702591705273306

    Number of ijk index combinations:              220
    Memory available in words               :      2500000000
    Approx. words needed per explicit thread:        21072096
    Number of threads for explicit ijk threading:    1

    MKL num_threads set to 1 for explicit threading.

    (T) energy                                =   -0.017948161733841
      * CCSD(T) total energy                  = -152.720539867007147


    Psi4 stopped on: Monday, 18 September 2023 05:00PM
    Psi4 wall time for execution: 0:09:02.42


  //>>>>>>>>>>>>>>>>>>>>>>>>>>>>>>>>>>>//
  //          ManyBody Results         //
  //<<<<<<<<<<<<<<<<<<<<<<<<<<<<<<<<<<<//


   ==> N-Body: Counterpoise Corrected (CP) energies <==

        n-Body     Total Energy            Interaction Energy                          N-body Contribution to Interaction Energy
                   [Eh]                    [Eh]                  [kcal/mol]            [Eh]                  [kcal/mol]
             1  N/A                         0.000000000000        0.000000000000        0.000000000000        0.000000000000
  FULL/RTN   2  N/A                        -0.005529889257       -3.470057897899       -0.005529889257       -3.470057897899


Scratch directory: /home/gridsan/kfisher/scratch/

  //>>>>>>>>>>>>>>>>>>>>>>>>>>>>>>>>>>>>>>>>//
  // ManyBody Setup: N-Body Levels [1, 2, 3]//
  //<<<<<<<<<<<<<<<<<<<<<<<<<<<<<<<<<<<<<<<<//

        Number of 1-body computations:     3
