Scratch directory: /home/gridsan/kfisher/scratch/

  //>>>>>>>>>>>>>>>>>>>>>>>>>>>>>>>>>>>>>>>>//
  // ManyBody Setup: N-Body Levels [1, 2, 3]//
  //<<<<<<<<<<<<<<<<<<<<<<<<<<<<<<<<<<<<<<<<//

        Number of 1-body computations:     3
        Number of 2-body computations:     3
        Number of 3-body computations:     1

    -----------------------------------------------------------------------
          Psi4: An Open-Source Ab Initio Electronic Structure Package
                               Psi4 1.7 release

                         Git: Rev {HEAD} 6ce35a5 


    D. G. A. Smith, L. A. Burns, A. C. Simmonett, R. M. Parrish,
    M. C. Schieber, R. Galvelis, P. Kraus, H. Kruse, R. Di Remigio,
    A. Alenaizan, A. M. James, S. Lehtola, J. P. Misiewicz, M. Scheurer,
    R. A. Shaw, J. B. Schriber, Y. Xie, Z. L. Glick, D. A. Sirianni,
    J. S. O'Brien, J. M. Waldrop, A. Kumar, E. G. Hohenstein,
    B. P. Pritchard, B. R. Brooks, H. F. Schaefer III, A. Yu. Sokolov,
    K. Patkowski, A. E. DePrince III, U. Bozkaya, R. A. King,
    F. A. Evangelista, J. M. Turney, T. D. Crawford, C. D. Sherrill,
    J. Chem. Phys. 152(18) 184108 (2020). https://doi.org/10.1063/5.0006002

                            Additional Code Authors
    E. T. Seidl, C. L. Janssen, E. F. Valeev, M. L. Leininger,
    J. F. Gonthier, R. M. Richard, H. R. McAlexander, M. Saitow, X. Wang,
    P. Verma, M. H. Lechner, A. Jiang, S. Behnle, A. G. Heide,
    M. F. Herbst, and D. L. Poole

             Previous Authors, Complete List of Code Contributors,
                       and Citations for Specific Modules
    https://github.com/psi4/psi4/blob/master/codemeta.json
    https://github.com/psi4/psi4/graphs/contributors
    http://psicode.org/psi4manual/master/introduction.html#citing-psifour

    -----------------------------------------------------------------------


    Psi4 started on: Sunday, 17 September 2023 12:48PM

    Process ID: 258105
    Host:       d-19-15-2
    PSIDATADIR: /home/gridsan/kfisher/.conda/envs/p4env/share/psi4
    Memory:     18.6 GiB
    Threads:    1
    
  ==> Input QCSchema <==

--------------------------------------------------------------------------
{'driver': 'energy',
 'extras': {'psiapi': True, 'wfn_qcvars_only': True},
 'id': None,
 'keywords': {'D_CONVERGENCE': 1e-10, 'E_CONVERGENCE': 1e-10, 'function_kwargs': {'dft_functional': 'scan-d3zero2b'}},
 'model': {'basis': 'aug-cc-pvtz', 'method': 'scf'},
 'molecule': {'atom_labels': ['', '', '', '', '', '', '', '', ''],
              'atomic_numbers': [1, 1, 8, 1, 1, 8, 1, 1, 8],
              'fix_com': True,
              'fix_orientation': True,
              'fix_symmetry': 'c1',
              'fragment_charges': [0.0, 0.0, 0.0],
              'fragment_multiplicities': [1, 1, 1],
              'fragments': [[0, 1, 2], [3, 4, 5], [6, 7, 8]],
              'geometry': [1.8482832032045564, 4.731014317170273, -7.990675703222834, 1.0081639368493027,
                           2.355881385030847, -6.390948630834015, 1.8746355096131109, 4.031888707562887,
                           -6.324247629187875, 6.689770437237563, 2.6766848258764226, -2.2144622186513105,
                           4.737047683565545, 2.625455371067369, -4.434821743416859, 5.9874398521214, 1.63660420845311,
                           -3.539735843175062, 9.4672772541677, 6.25728191470608, 0.8720680155816128, 7.775399161257309,
                           4.274877743007549, 2.254691294225155, 7.768500621550017, 5.616999428672693,
                           0.9830497223063643],
              'mass_numbers': [1, 1, 16, 1, 1, 16, 1, 1, 16],
              'masses': [1.00782503223, 1.00782503223, 15.99491461957, 1.00782503223, 1.00782503223, 15.99491461957,
                         1.00782503223, 1.00782503223, 15.99491461957],
              'molecular_charge': 0.0,
              'molecular_multiplicity': 1,
              'name': 'H6O3',
              'provenance': {'creator': 'QCElemental',
                             'routine': 'qcelemental.molparse.from_string',
                             'version': 'v0.25.1'},
              'real': [True, True, True, False, False, False, False, False, False],
              'schema_name': 'qcschema_molecule',
              'schema_version': 2,
              'symbols': ['H', 'H', 'O', 'H', 'H', 'O', 'H', 'H', 'O'],
              'validated': True},
 'protocols': {'stdout': True},
 'provenance': {'creator': 'QCElemental', 'routine': 'qcelemental.models.results', 'version': 'v0.25.1'},
 'schema_name': 'qcschema_input',
 'schema_version': 1}
--------------------------------------------------------------------------

Scratch directory: /home/gridsan/kfisher/scratch/

*** tstart() called on d-19-15-2
*** at Mon Sep 18 09:54:37 2023

   => Loading Basis Set <=

    Name: AUG-CC-PVTZ
    Role: ORBITAL
    Keyword: BASIS
    atoms 1-2, 4-5, 7-8 entry H          line    40 file /home/gridsan/kfisher/.conda/envs/p4env/share/psi4/basis/aug-cc-pvtz.gbs 
    atoms 3, 6, 9       entry O          line   331 file /home/gridsan/kfisher/.conda/envs/p4env/share/psi4/basis/aug-cc-pvtz.gbs 

   => SCAN-D3: Empirical Dispersion <=

    Grimme's -D3 (zero-damping) Dispersion Correction
    Grimme S.; Antony J.; Ehrlich S.; Krieg H. (2010), J. Chem. Phys., 132: 154104
    Parametrisation from:    J.G. Brandenburg, J. E. Bates, J. Sun, J.P. Perdew, Phys. Rev. B 94, 115144, 2016

        s6 =       1.000000
        s8 =       0.000000
       sr6 =       1.324000
    alpha6 =      14.000000
       sr8 =       1.000000


         ---------------------------------------------------------
                                   SCF
               by Justin Turney, Rob Parrish, Andy Simmonett
                          and Daniel G. A. Smith
                              RKS Reference
                        1 Threads,  19073 MiB Core
         ---------------------------------------------------------

  ==> Geometry <==

    Molecular point group: c1
    Full point group: C1

    Geometry (in Bohr), charge = 0, multiplicity = 1:

       Center              X                  Y                   Z               Mass       
    ------------   -----------------  -----------------  -----------------  -----------------
         H            1.848283203205     4.731014317170    -7.990675703223     1.007825032230
         H            1.008163936849     2.355881385031    -6.390948630834     1.007825032230
         O            1.874635509613     4.031888707563    -6.324247629188    15.994914619570
      Gh(H)           6.689770437238     2.676684825876    -2.214462218651     1.007825032230
      Gh(H)           4.737047683566     2.625455371067    -4.434821743417     1.007825032230
      Gh(O)           5.987439852121     1.636604208453    -3.539735843175    15.994914619570
      Gh(H)           9.467277254168     6.257281914706     0.872068015582     1.007825032230
      Gh(H)           7.775399161257     4.274877743008     2.254691294225     1.007825032230
      Gh(O)           7.768500621550     5.616999428673     0.983049722306    15.994914619570

  Running in c1 symmetry.

  Rotational constants: A =      0.06433  B =      0.02065  C =      0.01679 [cm^-1]
  Rotational constants: A =   1928.62339  B =    619.15287  C =    503.40988 [MHz]
  Nuclear repulsion =    8.998974628461220

  Charge       = 0
  Multiplicity = 1
  Electrons    = 10
  Nalpha       = 5
  Nbeta        = 5

  ==> Algorithm <==

  SCF Algorithm Type is DF.
  DIIS enabled.
  MOM disabled.
  Fractional occupation disabled.
  Guess Type is SAD.
  Energy threshold   = 1.00e-10
  Density threshold  = 1.00e-10
  Integral threshold = 1.00e-12

  ==> Primary Basis <==

  Basis Set: AUG-CC-PVTZ
    Blend: AUG-CC-PVTZ
    Number of shells: 96
    Number of basis functions: 276
    Number of Cartesian functions: 315
    Spherical Harmonics?: true
    Max angular momentum: 3

  ==> DFT Potential <==

   => Composite Functional: SCAN-D3ZERO2B <= 

    SCAN Meta-GGA XC Functional
(10.1103/PhysRevLett.115.036402)
    J. Sun, A. Ruzsinszky, J. P. Perdew  Phys. Rev. Lett. 115, 036402, 2015


    Deriv               =              1
    GGA                 =           TRUE
    Meta                =           TRUE

    Exchange Hybrid     =          FALSE
    MP2 Hybrid          =          FALSE

   => Exchange Functionals <=

    1.0000   XC_MGGA_X_SCAN

   => Correlation Functionals <=

    1.0000   XC_MGGA_C_SCAN

   => LibXC Density Thresholds  <==

    XC_MGGA_C_SCAN:  1.00E-15 
    XC_MGGA_X_SCAN:  1.00E-15 

   => Molecular Quadrature <=

    Radial Scheme          =       TREUTLER
    Pruning Scheme         =           NONE
    Nuclear Scheme         =       TREUTLER

    Blocking Scheme        =         OCTREE
    BS radius alpha        =              1
    Pruning alpha          =              1
    Radial Points          =             75
    Spherical Points       =            302
    Total Points           =         198254
    Total Blocks           =           1513
    Max Points             =            256
    Max Functions          =            269
    Weights Tolerance      =       1.00E-15

   => Loading Basis Set <=

    Name: (AUG-CC-PVTZ AUX)
    Role: JKFIT
    Keyword: DF_BASIS_SCF
    atoms 1-2, 4-5, 7-8 entry H          line    70 file /home/gridsan/kfisher/.conda/envs/p4env/share/psi4/basis/aug-cc-pvtz-jkfit.gbs 
    atoms 3, 6, 9       entry O          line   286 file /home/gridsan/kfisher/.conda/envs/p4env/share/psi4/basis/aug-cc-pvtz-jkfit.gbs 

  ==> Integral Setup <==

  DFHelper Memory: AOs need 0.321 GiB; user supplied 11.167 GiB. Using in-core AOs.

  ==> MemDFJK: Density-Fitted J/K Matrices <==

    J tasked:                   Yes
    K tasked:                    No
    wK tasked:                   No
    OpenMP threads:               1
    Memory [MiB]:             11435
    Algorithm:                 Core
    Schwarz Cutoff:           1E-12
    Mask sparsity (%):       9.3862
    Fitting Condition:        1E-10

   => Auxiliary Basis Set <=

  Basis Set: (AUG-CC-PVTZ AUX)
    Blend: AUG-CC-PVTZ-JKFIT
    Number of shells: 174
    Number of basis functions: 588
    Number of Cartesian functions: 723
    Spherical Harmonics?: true
    Max angular momentum: 4

  Cached 100.0% of DFT collocation blocks in 2.803 [GiB].

  Minimum eigenvalue in the overlap matrix is 1.6624807431E-04.
  Reciprocal condition number of the overlap matrix is 1.7367775616E-05.
    Using symmetric orthogonalization.

  ==> Pre-Iterations <==

  SCF Guess: Superposition of Atomic Densities via on-the-fly atomic UHF (no occupation information).

   -------------------------
    Irrep   Nso     Nmo    
   -------------------------
     A        276     276 
   -------------------------
    Total     276     276
   -------------------------

  ==> Iterations <==

                           Total Energy        Delta E     RMS |[F,P]|

   @DF-RKS iter SAD:   -76.05355938817586   -7.60536e+01   0.00000e+00 
   @DF-RKS iter   1:   -76.24142755610985   -1.87868e-01   2.64778e-03 DIIS/ADIIS
   @DF-RKS iter   2:   -75.63670149339121    6.04726e-01   5.07099e-03 DIIS/ADIIS
   @DF-RKS iter   3:   -76.42780621300334   -7.91105e-01   2.28678e-04 DIIS/ADIIS
   @DF-RKS iter   4:   -76.42968374632980   -1.87753e-03   2.76311e-05 DIIS
   @DF-RKS iter   5:   -76.42970227117399   -1.85248e-05   7.87602e-06 DIIS
   @DF-RKS iter   6:   -76.42970389027131   -1.61910e-06   5.17467e-07 DIIS
   @DF-RKS iter   7:   -76.42970389648274   -6.21142e-09   1.63737e-07 DIIS
   @DF-RKS iter   8:   -76.42970389722110   -7.38368e-10   4.36613e-08 DIIS
   @DF-RKS iter   9:   -76.42970389728049   -5.93872e-11   2.11647e-09 DIIS
   @DF-RKS iter  10:   -76.42970389728073   -2.41585e-13   1.87644e-10 DIIS
   @DF-RKS iter  11:   -76.42970389728062    1.13687e-13   2.38695e-11 DIIS
  Energy and wave function converged.


  ==> Post-Iterations <==

   Electrons on quadrature grid:
      Ntotal   =   10.0000040195 ; deviation = 4.020e-06 

    Orbital Energies [Eh]
    ---------------------

    Doubly Occupied:                                                      

       1A    -18.969381     2A     -0.972819     3A     -0.499456  
       4A     -0.350564     5A     -0.277684  

    Virtual:                                                              

       6A     -0.011980     7A      0.031655     8A      0.032687  
       9A      0.052230    10A      0.055898    11A      0.069458  
      12A      0.089022    13A      0.095086    14A      0.123348  
      15A      0.125380    16A      0.134365    17A      0.142156  
      18A      0.151689    19A      0.157534    20A      0.165777  
      21A      0.181630    22A      0.188150    23A      0.198290  
      24A      0.206227    25A      0.227859    26A      0.252049  
      27A      0.267286    28A      0.268046    29A      0.289196  
      30A      0.300261    31A      0.312071    32A      0.323847  
      33A      0.339197    34A      0.343832    35A      0.354256  
      36A      0.357727    37A      0.362724    38A      0.369624  
      39A      0.375072    40A      0.390996    41A      0.394456  
      42A      0.416809    43A      0.420010    44A      0.453101  
      45A      0.467650    46A      0.474426    47A      0.525542  
      48A      0.548757    49A      0.579191    50A      0.630329  
      51A      0.655186    52A      0.659682    53A      0.692050  
      54A      0.699164    55A      0.705337    56A      0.736549  
      57A      0.752987    58A      0.758142    59A      0.771363  
      60A      0.779906    61A      0.790239    62A      0.807634  
      63A      0.812217    64A      0.817253    65A      0.825237  
      66A      0.839879    67A      0.846755    68A      0.857755  
      69A      0.863351    70A      0.877641    71A      0.896894  
      72A      0.907667    73A      0.910381    74A      0.913527  
      75A      0.932952    76A      0.940753    77A      0.948153  
      78A      0.959914    79A      0.965352    80A      0.992932  
      81A      1.005402    82A      1.019350    83A      1.039322  
      84A      1.050314    85A      1.063866    86A      1.075415  
      87A      1.095233    88A      1.114726    89A      1.125178  
      90A      1.144023    91A      1.144503    92A      1.149149  
      93A      1.163778    94A      1.186496    95A      1.214719  
      96A      1.223311    97A      1.256602    98A      1.283542  
      99A      1.303476   100A      1.328087   101A      1.332273  
     102A      1.403351   103A      1.426661   104A      1.438938  
     105A      1.482022   106A      1.498505   107A      1.543085  
     108A      1.553268   109A      1.596154   110A      1.629924  
     111A      1.653473   112A      1.675273   113A      1.707828  
     114A      1.731171   115A      1.768985   116A      1.779997  
     117A      1.787985   118A      1.836290   119A      1.839102  
     120A      1.853351   121A      1.887353   122A      1.903522  
     123A      1.944115   124A      1.968078   125A      2.027788  
     126A      2.045716   127A      2.067713   128A      2.129710  
     129A      2.201078   130A      2.250228   131A      2.280153  
     132A      2.333318   133A      2.356710   134A      2.391803  
     135A      2.432642   136A      2.448629   137A      2.477373  
     138A      2.508715   139A      2.542313   140A      2.552758  
     141A      2.557095   142A      2.572183   143A      2.580121  
     144A      2.599688   145A      2.609909   146A      2.622874  
     147A      2.657331   148A      2.676893   149A      2.704746  
     150A      2.721665   151A      2.748180   152A      2.785363  
     153A      2.810314   154A      2.879296   155A      2.886896  
     156A      2.960631   157A      3.036977   158A      3.129682  
     159A      3.186567   160A      3.195792   161A      3.241116  
     162A      3.287748   163A      3.314874   164A      3.329153  
     165A      3.387294   166A      3.456769   167A      3.508231  
     168A      3.534250   169A      3.556749   170A      3.579278  
     171A      3.655466   172A      3.699021   173A      3.781490  
     174A      3.892659   175A      3.947189   176A      4.051150  
     177A      4.108126   178A      4.218317   179A      4.278566  
     180A      4.320456   181A      4.347699   182A      4.382431  
     183A      4.430033   184A      4.458535   185A      4.483251  
     186A      4.485075   187A      4.534501   188A      4.546465  
     189A      4.594664   190A      4.620433   191A      4.675113  
     192A      4.682271   193A      4.717923   194A      4.785012  
     195A      4.800892   196A      4.825362   197A      4.929448  
     198A      4.943720   199A      4.993693   200A      5.003520  
     201A      5.018778   202A      5.096193   203A      5.125568  
     204A      5.146230   205A      5.163971   206A      5.237872  
     207A      5.259076   208A      5.339039   209A      5.370702  
     210A      5.481991   211A      5.527681   212A      5.576378  
     213A      5.583737   214A      5.643965   215A      5.660180  
     216A      5.685480   217A      5.822190   218A      5.856972  
     219A      5.898468   220A      6.006069   221A      6.236298  
     222A      6.270286   223A      6.339746   224A      6.385574  
     225A      6.536922   226A      6.580419   227A      6.662426  
     228A      6.706482   229A      6.850640   230A      6.915135  
     231A      6.949566   232A      6.974228   233A      7.033471  
     234A      7.049234   235A      7.066402   236A      7.156887  
     237A      7.258727   238A      7.406473   239A      7.625923  
     240A      7.630921   241A      7.696627   242A      7.757275  
     243A      7.814832   244A      7.868762   245A      8.122056  
     246A      8.141655   247A      8.200894   248A      8.265406  
     249A      8.372097   250A      8.383272   251A      8.478891  
     252A      8.710855   253A      8.772700   254A      9.012568  
     255A      9.222077   256A      9.718677   257A      9.778469  
     258A      9.901217   259A      9.943452   260A     10.022611  
     261A     10.204179   262A     10.227019   263A     10.429103  
     264A     11.147086   265A     11.298427   266A     11.816208  
     267A     11.840660   268A     12.074251   269A     12.300883  
     270A     13.450133   271A     13.829136   272A     13.864710  
     273A     14.188340   274A     15.166772   275A     64.279421  
     276A     67.589864  

    Final Occupation by Irrep:
              A 
    DOCC [     5 ]
    NA   [     5 ]
    NB   [     5 ]

  @DF-RKS Final Energy:   -76.42970389728062

   => Energetics <=

    Nuclear Repulsion Energy =              8.9989746284612195
    One-Electron Energy =                -122.7134020438883653
    Two-Electron Energy =                  46.5654614836658425
    DFT Exchange-Correlation Energy =      -9.2807377955193129
    Empirical Dispersion Energy =          -0.0000001700000000
    VV10 Nonlocal Energy =                  0.0000000000000000
    Total Energy =                        -76.4297038972806178

Computation Completed


Properties will be evaluated at   0.000000,   0.000000,   0.000000 [a0]

Properties computed using the SCF density matrix


 Multipole Moments:

 ------------------------------------------------------------------------------------
     Multipole            Electronic (a.u.)      Nuclear  (a.u.)        Total (a.u.)
 ------------------------------------------------------------------------------------

 L = 1.  Multiply by 2.5417464519 to convert [e a0] to [Debye]
 Dipole X            :        -18.1404976           17.8535312           -0.2869664
 Dipole Y            :        -39.6520247           39.3420054           -0.3100194
 Dipole Z            :         64.4109671          -64.9756054           -0.5646382
 Magnitude           :                                                    0.7051795

 ------------------------------------------------------------------------------------

*** tstop() called on d-19-15-2 at Mon Sep 18 09:55:27 2023
Module time:
	user time   =      49.51 seconds =       0.83 minutes
	system time =       0.37 seconds =       0.01 minutes
	total time  =         50 seconds =       0.83 minutes
Total time:
	user time   =   45046.04 seconds =     750.77 minutes
	system time =   22538.77 seconds =     375.65 minutes
	total time  =      76023 seconds =    1267.05 minutes

    Psi4 stopped on: Monday, 18 September 2023 09:55AM
    Psi4 wall time for execution: 0:00:50.07


    -----------------------------------------------------------------------
          Psi4: An Open-Source Ab Initio Electronic Structure Package
                               Psi4 1.7 release

                         Git: Rev {HEAD} 6ce35a5 


    D. G. A. Smith, L. A. Burns, A. C. Simmonett, R. M. Parrish,
    M. C. Schieber, R. Galvelis, P. Kraus, H. Kruse, R. Di Remigio,
    A. Alenaizan, A. M. James, S. Lehtola, J. P. Misiewicz, M. Scheurer,
    R. A. Shaw, J. B. Schriber, Y. Xie, Z. L. Glick, D. A. Sirianni,
    J. S. O'Brien, J. M. Waldrop, A. Kumar, E. G. Hohenstein,
    B. P. Pritchard, B. R. Brooks, H. F. Schaefer III, A. Yu. Sokolov,
    K. Patkowski, A. E. DePrince III, U. Bozkaya, R. A. King,
    F. A. Evangelista, J. M. Turney, T. D. Crawford, C. D. Sherrill,
    J. Chem. Phys. 152(18) 184108 (2020). https://doi.org/10.1063/5.0006002

                            Additional Code Authors
    E. T. Seidl, C. L. Janssen, E. F. Valeev, M. L. Leininger,
    J. F. Gonthier, R. M. Richard, H. R. McAlexander, M. Saitow, X. Wang,
    P. Verma, M. H. Lechner, A. Jiang, S. Behnle, A. G. Heide,
    M. F. Herbst, and D. L. Poole

             Previous Authors, Complete List of Code Contributors,
                       and Citations for Specific Modules
    https://github.com/psi4/psi4/blob/master/codemeta.json
    https://github.com/psi4/psi4/graphs/contributors
    http://psicode.org/psi4manual/master/introduction.html#citing-psifour

    -----------------------------------------------------------------------


    Psi4 started on: Sunday, 17 September 2023 12:48PM

    Process ID: 258105
    Host:       d-19-15-2
    PSIDATADIR: /home/gridsan/kfisher/.conda/envs/p4env/share/psi4
    Memory:     18.6 GiB
    Threads:    1
    
  ==> Input QCSchema <==

--------------------------------------------------------------------------
{'driver': 'energy',
 'extras': {'psiapi': True, 'wfn_qcvars_only': True},
 'id': None,
 'keywords': {'D_CONVERGENCE': 1e-10, 'E_CONVERGENCE': 1e-10, 'function_kwargs': {'dft_functional': 'scan-d3zero2b'}},
 'model': {'basis': 'aug-cc-pvtz', 'method': 'scf'},
 'molecule': {'atom_labels': ['', '', '', '', '', '', '', '', ''],
              'atomic_numbers': [1, 1, 8, 1, 1, 8, 1, 1, 8],
              'fix_com': True,
              'fix_orientation': True,
              'fix_symmetry': 'c1',
              'fragment_charges': [0.0, 0.0, 0.0],
              'fragment_multiplicities': [1, 1, 1],
              'fragments': [[0, 1, 2], [3, 4, 5], [6, 7, 8]],
              'geometry': [1.8482832032045564, 4.731014317170273, -7.990675703222834, 1.0081639368493027,
                           2.355881385030847, -6.390948630834015, 1.8746355096131109, 4.031888707562887,
                           -6.324247629187875, 6.689770437237563, 2.6766848258764226, -2.2144622186513105,
                           4.737047683565545, 2.625455371067369, -4.434821743416859, 5.9874398521214, 1.63660420845311,
                           -3.539735843175062, 9.4672772541677, 6.25728191470608, 0.8720680155816128, 7.775399161257309,
                           4.274877743007549, 2.254691294225155, 7.768500621550017, 5.616999428672693,
                           0.9830497223063643],
              'mass_numbers': [1, 1, 16, 1, 1, 16, 1, 1, 16],
              'masses': [1.00782503223, 1.00782503223, 15.99491461957, 1.00782503223, 1.00782503223, 15.99491461957,
                         1.00782503223, 1.00782503223, 15.99491461957],
              'molecular_charge': 0.0,
              'molecular_multiplicity': 1,
              'name': 'H6O3',
              'provenance': {'creator': 'QCElemental',
                             'routine': 'qcelemental.molparse.from_string',
                             'version': 'v0.25.1'},
              'real': [False, False, False, True, True, True, False, False, False],
              'schema_name': 'qcschema_molecule',
              'schema_version': 2,
              'symbols': ['H', 'H', 'O', 'H', 'H', 'O', 'H', 'H', 'O'],
              'validated': True},
 'protocols': {'stdout': True},
 'provenance': {'creator': 'QCElemental', 'routine': 'qcelemental.models.results', 'version': 'v0.25.1'},
 'schema_name': 'qcschema_input',
 'schema_version': 1}
--------------------------------------------------------------------------

Scratch directory: /home/gridsan/kfisher/scratch/

*** tstart() called on d-19-15-2
*** at Mon Sep 18 09:55:27 2023

   => Loading Basis Set <=

    Name: AUG-CC-PVTZ
    Role: ORBITAL
    Keyword: BASIS
    atoms 1-2, 4-5, 7-8 entry H          line    40 file /home/gridsan/kfisher/.conda/envs/p4env/share/psi4/basis/aug-cc-pvtz.gbs 
    atoms 3, 6, 9       entry O          line   331 file /home/gridsan/kfisher/.conda/envs/p4env/share/psi4/basis/aug-cc-pvtz.gbs 

   => SCAN-D3: Empirical Dispersion <=

    Grimme's -D3 (zero-damping) Dispersion Correction
    Grimme S.; Antony J.; Ehrlich S.; Krieg H. (2010), J. Chem. Phys., 132: 154104
    Parametrisation from:    J.G. Brandenburg, J. E. Bates, J. Sun, J.P. Perdew, Phys. Rev. B 94, 115144, 2016

        s6 =       1.000000
        s8 =       0.000000
       sr6 =       1.324000
    alpha6 =      14.000000
       sr8 =       1.000000


         ---------------------------------------------------------
                                   SCF
               by Justin Turney, Rob Parrish, Andy Simmonett
                          and Daniel G. A. Smith
                              RKS Reference
                        1 Threads,  19073 MiB Core
         ---------------------------------------------------------

  ==> Geometry <==

    Molecular point group: c1
    Full point group: C1

    Geometry (in Bohr), charge = 0, multiplicity = 1:

       Center              X                  Y                   Z               Mass       
    ------------   -----------------  -----------------  -----------------  -----------------
      Gh(H)           1.848283203205     4.731014317170    -7.990675703223     1.007825032230
      Gh(H)           1.008163936849     2.355881385031    -6.390948630834     1.007825032230
      Gh(O)           1.874635509613     4.031888707563    -6.324247629188    15.994914619570
         H            6.689770437238     2.676684825876    -2.214462218651     1.007825032230
         H            4.737047683566     2.625455371067    -4.434821743417     1.007825032230
         O            5.987439852121     1.636604208453    -3.539735843175    15.994914619570
      Gh(H)           9.467277254168     6.257281914706     0.872068015582     1.007825032230
      Gh(H)           7.775399161257     4.274877743008     2.254691294225     1.007825032230
      Gh(O)           7.768500621550     5.616999428673     0.983049722306    15.994914619570

  Running in c1 symmetry.

  Rotational constants: A =      0.06433  B =      0.02065  C =      0.01679 [cm^-1]
  Rotational constants: A =   1928.62339  B =    619.15287  C =    503.40988 [MHz]
  Nuclear repulsion =    9.096981845556908

  Charge       = 0
  Multiplicity = 1
  Electrons    = 10
  Nalpha       = 5
  Nbeta        = 5

  ==> Algorithm <==

  SCF Algorithm Type is DF.
  DIIS enabled.
  MOM disabled.
  Fractional occupation disabled.
  Guess Type is SAD.
  Energy threshold   = 1.00e-10
  Density threshold  = 1.00e-10
  Integral threshold = 1.00e-12

  ==> Primary Basis <==

  Basis Set: AUG-CC-PVTZ
    Blend: AUG-CC-PVTZ
    Number of shells: 96
    Number of basis functions: 276
    Number of Cartesian functions: 315
    Spherical Harmonics?: true
    Max angular momentum: 3

  ==> DFT Potential <==

   => Composite Functional: SCAN-D3ZERO2B <= 

    SCAN Meta-GGA XC Functional
(10.1103/PhysRevLett.115.036402)
    J. Sun, A. Ruzsinszky, J. P. Perdew  Phys. Rev. Lett. 115, 036402, 2015


    Deriv               =              1
    GGA                 =           TRUE
    Meta                =           TRUE

    Exchange Hybrid     =          FALSE
    MP2 Hybrid          =          FALSE

   => Exchange Functionals <=

    1.0000   XC_MGGA_X_SCAN

   => Correlation Functionals <=

    1.0000   XC_MGGA_C_SCAN

   => LibXC Density Thresholds  <==

    XC_MGGA_C_SCAN:  1.00E-15 
    XC_MGGA_X_SCAN:  1.00E-15 

   => Molecular Quadrature <=

    Radial Scheme          =       TREUTLER
    Pruning Scheme         =           NONE
    Nuclear Scheme         =       TREUTLER

    Blocking Scheme        =         OCTREE
    BS radius alpha        =              1
    Pruning alpha          =              1
    Radial Points          =             75
    Spherical Points       =            302
    Total Points           =         198254
    Total Blocks           =           1513
    Max Points             =            256
    Max Functions          =            269
    Weights Tolerance      =       1.00E-15

   => Loading Basis Set <=

    Name: (AUG-CC-PVTZ AUX)
    Role: JKFIT
    Keyword: DF_BASIS_SCF
    atoms 1-2, 4-5, 7-8 entry H          line    70 file /home/gridsan/kfisher/.conda/envs/p4env/share/psi4/basis/aug-cc-pvtz-jkfit.gbs 
    atoms 3, 6, 9       entry O          line   286 file /home/gridsan/kfisher/.conda/envs/p4env/share/psi4/basis/aug-cc-pvtz-jkfit.gbs 

  ==> Integral Setup <==

  DFHelper Memory: AOs need 0.321 GiB; user supplied 11.167 GiB. Using in-core AOs.

  ==> MemDFJK: Density-Fitted J/K Matrices <==

    J tasked:                   Yes
    K tasked:                    No
    wK tasked:                   No
    OpenMP threads:               1
    Memory [MiB]:             11435
    Algorithm:                 Core
    Schwarz Cutoff:           1E-12
    Mask sparsity (%):       9.3862
    Fitting Condition:        1E-10

   => Auxiliary Basis Set <=

  Basis Set: (AUG-CC-PVTZ AUX)
    Blend: AUG-CC-PVTZ-JKFIT
    Number of shells: 174
    Number of basis functions: 588
    Number of Cartesian functions: 723
    Spherical Harmonics?: true
    Max angular momentum: 4

  Cached 100.0% of DFT collocation blocks in 2.803 [GiB].

  Minimum eigenvalue in the overlap matrix is 1.6624807431E-04.
  Reciprocal condition number of the overlap matrix is 1.7367775616E-05.
    Using symmetric orthogonalization.

  ==> Pre-Iterations <==

  SCF Guess: Superposition of Atomic Densities via on-the-fly atomic UHF (no occupation information).

   -------------------------
    Irrep   Nso     Nmo    
   -------------------------
     A        276     276 
   -------------------------
    Total     276     276
   -------------------------

  ==> Iterations <==

                           Total Energy        Delta E     RMS |[F,P]|

   @DF-RKS iter SAD:   -76.05975324569344   -7.60598e+01   0.00000e+00 
   @DF-RKS iter   1:   -76.24227146674208   -1.82518e-01   2.65876e-03 DIIS/ADIIS
   @DF-RKS iter   2:   -75.65842943614375    5.83842e-01   5.02592e-03 DIIS/ADIIS
   @DF-RKS iter   3:   -76.42906956073570   -7.70640e-01   2.28859e-04 DIIS/ADIIS
   @DF-RKS iter   4:   -76.43091531474919   -1.84575e-03   2.65991e-05 DIIS
   @DF-RKS iter   5:   -76.43093194636653   -1.66316e-05   7.88685e-06 DIIS
   @DF-RKS iter   6:   -76.43093355204527   -1.60568e-06   4.33873e-07 DIIS
   @DF-RKS iter   7:   -76.43093355657778   -4.53251e-09   9.50820e-08 DIIS
   @DF-RKS iter   8:   -76.43093355683888   -2.61096e-10   6.72719e-09 DIIS
   @DF-RKS iter   9:   -76.43093355684054   -1.66267e-12   2.41351e-09 DIIS
   @DF-RKS iter  10:   -76.43093355684047    7.10543e-14   1.69255e-10 DIIS
   @DF-RKS iter  11:   -76.43093355684046    1.42109e-14   9.81012e-12 DIIS
  Energy and wave function converged.


  ==> Post-Iterations <==

   Electrons on quadrature grid:
      Ntotal   =   10.0000006105 ; deviation = 6.105e-07 

    Orbital Energies [Eh]
    ---------------------

    Doubly Occupied:                                                      

       1A    -18.967681     2A     -0.976824     3A     -0.504165  
       4A     -0.350674     5A     -0.278523  

    Virtual:                                                              

       6A     -0.011129     7A      0.025840     8A      0.039018  
       9A      0.044987    10A      0.055331    11A      0.063967  
      12A      0.077639    13A      0.088829    14A      0.098659  
      15A      0.127323    16A      0.135361    17A      0.142460  
      18A      0.157332    19A      0.159304    20A      0.162837  
      21A      0.166558    22A      0.186897    23A      0.200938  
      24A      0.224693    25A      0.235408    26A      0.239003  
      27A      0.256100    28A      0.266394    29A      0.272897  
      30A      0.276150    31A      0.286943    32A      0.289822  
      33A      0.331292    34A      0.334960    35A      0.343050  
      36A      0.349784    37A      0.359479    38A      0.362124  
      39A      0.375670    40A      0.378796    41A      0.392204  
      42A      0.395080    43A      0.410064    44A      0.427560  
      45A      0.462891    46A      0.497488    47A      0.529659  
      48A      0.563607    49A      0.579517    50A      0.606434  
      51A      0.627989    52A      0.637832    53A      0.649894  
      54A      0.693957    55A      0.719092    56A      0.726299  
      57A      0.732629    58A      0.749460    59A      0.756206  
      60A      0.757437    61A      0.777682    62A      0.782983  
      63A      0.788367    64A      0.794106    65A      0.811082  
      66A      0.825886    67A      0.831381    68A      0.845081  
      69A      0.852363    70A      0.860444    71A      0.875356  
      72A      0.888809    73A      0.900116    74A      0.913171  
      75A      0.915385    76A      0.935106    77A      0.939822  
      78A      0.951691    79A      0.977280    80A      0.991928  
      81A      1.000647    82A      1.010820    83A      1.026241  
      84A      1.031902    85A      1.056278    86A      1.066111  
      87A      1.075500    88A      1.102644    89A      1.112550  
      90A      1.123791    91A      1.138276    92A      1.156946  
      93A      1.165092    94A      1.174373    95A      1.192879  
      96A      1.224621    97A      1.231125    98A      1.270773  
      99A      1.286258   100A      1.298378   101A      1.300351  
     102A      1.356351   103A      1.405439   104A      1.416796  
     105A      1.436703   106A      1.473697   107A      1.485181  
     108A      1.499809   109A      1.505137   110A      1.523053  
     111A      1.602476   112A      1.631777   113A      1.696744  
     114A      1.723316   115A      1.730674   116A      1.737016  
     117A      1.756757   118A      1.812958   119A      1.817817  
     120A      1.827558   121A      1.840782   122A      1.902141  
     123A      1.933459   124A      1.981105   125A      2.004876  
     126A      2.026598   127A      2.145409   128A      2.160514  
     129A      2.186442   130A      2.257232   131A      2.257828  
     132A      2.320498   133A      2.339674   134A      2.364228  
     135A      2.402624   136A      2.432491   137A      2.472116  
     138A      2.488796   139A      2.520134   140A      2.528190  
     141A      2.539122   142A      2.557484   143A      2.568191  
     144A      2.600567   145A      2.610404   146A      2.634830  
     147A      2.648680   148A      2.686021   149A      2.738218  
     150A      2.808165   151A      2.846212   152A      2.855140  
     153A      2.880006   154A      2.889327   155A      2.926323  
     156A      2.963314   157A      3.034583   158A      3.130062  
     159A      3.155793   160A      3.166171   161A      3.166892  
     162A      3.196357   163A      3.246384   164A      3.252324  
     165A      3.290767   166A      3.306192   167A      3.362777  
     168A      3.421347   169A      3.516477   170A      3.546969  
     171A      3.662898   172A      3.676928   173A      3.749648  
     174A      3.905767   175A      3.914088   176A      3.977401  
     177A      4.148080   178A      4.168401   179A      4.235632  
     180A      4.272936   181A      4.299725   182A      4.322440  
     183A      4.338289   184A      4.367034   185A      4.429976  
     186A      4.492533   187A      4.509288   188A      4.533695  
     189A      4.571910   190A      4.586415   191A      4.593940  
     192A      4.638930   193A      4.652872   194A      4.679121  
     195A      4.697361   196A      4.803289   197A      4.882964  
     198A      4.922298   199A      4.932986   200A      4.995789  
     201A      5.020502   202A      5.036442   203A      5.058028  
     204A      5.112512   205A      5.127279   206A      5.181449  
     207A      5.199673   208A      5.248775   209A      5.291749  
     210A      5.341147   211A      5.454730   212A      5.461119  
     213A      5.530446   214A      5.555404   215A      5.591058  
     216A      5.657992   217A      5.745558   218A      5.790543  
     219A      5.826900   220A      5.955728   221A      6.204418  
     222A      6.269278   223A      6.301434   224A      6.312578  
     225A      6.331186   226A      6.502427   227A      6.603400  
     228A      6.637660   229A      6.671889   230A      6.859906  
     231A      6.952750   232A      6.963912   233A      7.006463  
     234A      7.018004   235A      7.089253   236A      7.162194  
     237A      7.220928   238A      7.514930   239A      7.663902  
     240A      7.675098   241A      7.732060   242A      7.810361  
     243A      7.864500   244A      7.883239   245A      8.107780  
     246A      8.141645   247A      8.178662   248A      8.209078  
     249A      8.244349   250A      8.391373   251A      8.553867  
     252A      8.688429   253A      8.739906   254A      8.744342  
     255A      8.806869   256A      9.717782   257A      9.839069  
     258A      9.917598   259A      9.977844   260A      9.997517  
     261A     10.100939   262A     10.175848   263A     10.266006  
     264A     11.075543   265A     11.117383   266A     11.797764  
     267A     11.800138   268A     12.046321   269A     12.215545  
     270A     13.413905   271A     13.421259   272A     13.835040  
     273A     13.884405   274A     16.375983   275A     64.354883  
     276A     64.866874  

    Final Occupation by Irrep:
              A 
    DOCC [     5 ]
    NA   [     5 ]
    NB   [     5 ]

  @DF-RKS Final Energy:   -76.43093355684046

   => Energetics <=

    Nuclear Repulsion Energy =              9.0969818455569076
    One-Electron Energy =                -122.8896533294932567
    Two-Electron Energy =                  46.6526831458049998
    DFT Exchange-Correlation Energy =      -9.2909450587091218
    Empirical Dispersion Energy =          -0.0000001600000000
    VV10 Nonlocal Energy =                  0.0000000000000000
    Total Energy =                        -76.4309335568404720

Computation Completed


Properties will be evaluated at   0.000000,   0.000000,   0.000000 [a0]

Properties computed using the SCF density matrix


 Multipole Moments:

 ------------------------------------------------------------------------------------
     Multipole            Electronic (a.u.)      Nuclear  (a.u.)        Total (a.u.)
 ------------------------------------------------------------------------------------

 L = 1.  Multiply by 2.5417464519 to convert [e a0] to [Debye]
 Dipole X            :        -59.5055964           59.3263369           -0.1792595
 Dipole Y            :        -17.7302167           18.3949739            0.6647571
 Dipole Z            :         35.1081171          -34.9671707            0.1409463
 Magnitude           :                                                    0.7027815

 ------------------------------------------------------------------------------------

*** tstop() called on d-19-15-2 at Mon Sep 18 09:56:18 2023
Module time:
	user time   =      49.94 seconds =       0.83 minutes
	system time =       0.29 seconds =       0.00 minutes
	total time  =         51 seconds =       0.85 minutes
Total time:
	user time   =   45096.04 seconds =     751.60 minutes
	system time =   22539.06 seconds =     375.65 minutes
	total time  =      76074 seconds =    1267.90 minutes

    Psi4 stopped on: Monday, 18 September 2023 09:56AM
    Psi4 wall time for execution: 0:00:50.41


    -----------------------------------------------------------------------
          Psi4: An Open-Source Ab Initio Electronic Structure Package
                               Psi4 1.7 release

                         Git: Rev {HEAD} 6ce35a5 


    D. G. A. Smith, L. A. Burns, A. C. Simmonett, R. M. Parrish,
    M. C. Schieber, R. Galvelis, P. Kraus, H. Kruse, R. Di Remigio,
    A. Alenaizan, A. M. James, S. Lehtola, J. P. Misiewicz, M. Scheurer,
    R. A. Shaw, J. B. Schriber, Y. Xie, Z. L. Glick, D. A. Sirianni,
    J. S. O'Brien, J. M. Waldrop, A. Kumar, E. G. Hohenstein,
    B. P. Pritchard, B. R. Brooks, H. F. Schaefer III, A. Yu. Sokolov,
    K. Patkowski, A. E. DePrince III, U. Bozkaya, R. A. King,
    F. A. Evangelista, J. M. Turney, T. D. Crawford, C. D. Sherrill,
    J. Chem. Phys. 152(18) 184108 (2020). https://doi.org/10.1063/5.0006002

                            Additional Code Authors
    E. T. Seidl, C. L. Janssen, E. F. Valeev, M. L. Leininger,
    J. F. Gonthier, R. M. Richard, H. R. McAlexander, M. Saitow, X. Wang,
    P. Verma, M. H. Lechner, A. Jiang, S. Behnle, A. G. Heide,
    M. F. Herbst, and D. L. Poole

             Previous Authors, Complete List of Code Contributors,
                       and Citations for Specific Modules
    https://github.com/psi4/psi4/blob/master/codemeta.json
    https://github.com/psi4/psi4/graphs/contributors
    http://psicode.org/psi4manual/master/introduction.html#citing-psifour

    -----------------------------------------------------------------------


    Psi4 started on: Sunday, 17 September 2023 12:48PM

    Process ID: 258105
    Host:       d-19-15-2
    PSIDATADIR: /home/gridsan/kfisher/.conda/envs/p4env/share/psi4
    Memory:     18.6 GiB
    Threads:    1
    
  ==> Input QCSchema <==

--------------------------------------------------------------------------
{'driver': 'energy',
 'extras': {'psiapi': True, 'wfn_qcvars_only': True},
 'id': None,
 'keywords': {'D_CONVERGENCE': 1e-10, 'E_CONVERGENCE': 1e-10, 'function_kwargs': {'dft_functional': 'scan-d3zero2b'}},
 'model': {'basis': 'aug-cc-pvtz', 'method': 'scf'},
 'molecule': {'atom_labels': ['', '', '', '', '', '', '', '', ''],
              'atomic_numbers': [1, 1, 8, 1, 1, 8, 1, 1, 8],
              'fix_com': True,
              'fix_orientation': True,
              'fix_symmetry': 'c1',
              'fragment_charges': [0.0, 0.0, 0.0],
              'fragment_multiplicities': [1, 1, 1],
              'fragments': [[0, 1, 2], [3, 4, 5], [6, 7, 8]],
              'geometry': [1.8482832032045564, 4.731014317170273, -7.990675703222834, 1.0081639368493027,
                           2.355881385030847, -6.390948630834015, 1.8746355096131109, 4.031888707562887,
                           -6.324247629187875, 6.689770437237563, 2.6766848258764226, -2.2144622186513105,
                           4.737047683565545, 2.625455371067369, -4.434821743416859, 5.9874398521214, 1.63660420845311,
                           -3.539735843175062, 9.4672772541677, 6.25728191470608, 0.8720680155816128, 7.775399161257309,
                           4.274877743007549, 2.254691294225155, 7.768500621550017, 5.616999428672693,
                           0.9830497223063643],
              'mass_numbers': [1, 1, 16, 1, 1, 16, 1, 1, 16],
              'masses': [1.00782503223, 1.00782503223, 15.99491461957, 1.00782503223, 1.00782503223, 15.99491461957,
                         1.00782503223, 1.00782503223, 15.99491461957],
              'molecular_charge': 0.0,
              'molecular_multiplicity': 1,
              'name': 'H6O3',
              'provenance': {'creator': 'QCElemental',
                             'routine': 'qcelemental.molparse.from_string',
                             'version': 'v0.25.1'},
              'real': [False, False, False, True, True, True, True, True, True],
              'schema_name': 'qcschema_molecule',
              'schema_version': 2,
              'symbols': ['H', 'H', 'O', 'H', 'H', 'O', 'H', 'H', 'O'],
              'validated': True},
 'protocols': {'stdout': True},
 'provenance': {'creator': 'QCElemental', 'routine': 'qcelemental.models.results', 'version': 'v0.25.1'},
 'schema_name': 'qcschema_input',
 'schema_version': 1}
--------------------------------------------------------------------------

Scratch directory: /home/gridsan/kfisher/scratch/

*** tstart() called on d-19-15-2
*** at Mon Sep 18 09:56:18 2023

   => Loading Basis Set <=

    Name: AUG-CC-PVTZ
    Role: ORBITAL
    Keyword: BASIS
    atoms 1-2, 4-5, 7-8 entry H          line    40 file /home/gridsan/kfisher/.conda/envs/p4env/share/psi4/basis/aug-cc-pvtz.gbs 
    atoms 3, 6, 9       entry O          line   331 file /home/gridsan/kfisher/.conda/envs/p4env/share/psi4/basis/aug-cc-pvtz.gbs 

   => SCAN-D3: Empirical Dispersion <=

    Grimme's -D3 (zero-damping) Dispersion Correction
    Grimme S.; Antony J.; Ehrlich S.; Krieg H. (2010), J. Chem. Phys., 132: 154104
    Parametrisation from:    J.G. Brandenburg, J. E. Bates, J. Sun, J.P. Perdew, Phys. Rev. B 94, 115144, 2016

        s6 =       1.000000
        s8 =       0.000000
       sr6 =       1.324000
    alpha6 =      14.000000
       sr8 =       1.000000


         ---------------------------------------------------------
                                   SCF
               by Justin Turney, Rob Parrish, Andy Simmonett
                          and Daniel G. A. Smith
                              RKS Reference
                        1 Threads,  19073 MiB Core
         ---------------------------------------------------------

  ==> Geometry <==

    Molecular point group: c1
    Full point group: C1

    Geometry (in Bohr), charge = 0, multiplicity = 1:

       Center              X                  Y                   Z               Mass       
    ------------   -----------------  -----------------  -----------------  -----------------
      Gh(H)           1.848283203205     4.731014317170    -7.990675703223     1.007825032230
      Gh(H)           1.008163936849     2.355881385031    -6.390948630834     1.007825032230
      Gh(O)           1.874635509613     4.031888707563    -6.324247629188    15.994914619570
         H            6.689770437238     2.676684825876    -2.214462218651     1.007825032230
         H            4.737047683566     2.625455371067    -4.434821743417     1.007825032230
         O            5.987439852121     1.636604208453    -3.539735843175    15.994914619570
         H            9.467277254168     6.257281914706     0.872068015582     1.007825032230
         H            7.775399161257     4.274877743008     2.254691294225     1.007825032230
         O            7.768500621550     5.616999428673     0.983049722306    15.994914619570

  Running in c1 symmetry.

  Rotational constants: A =      0.06433  B =      0.02065  C =      0.01679 [cm^-1]
  Rotational constants: A =   1928.62339  B =    619.15287  C =    503.40988 [MHz]
  Nuclear repulsion =   34.251590568624799

  Charge       = 0
  Multiplicity = 1
  Electrons    = 20
  Nalpha       = 10
  Nbeta        = 10

  ==> Algorithm <==

  SCF Algorithm Type is DF.
  DIIS enabled.
  MOM disabled.
  Fractional occupation disabled.
  Guess Type is SAD.
  Energy threshold   = 1.00e-10
  Density threshold  = 1.00e-10
  Integral threshold = 1.00e-12

  ==> Primary Basis <==

  Basis Set: AUG-CC-PVTZ
    Blend: AUG-CC-PVTZ
    Number of shells: 96
    Number of basis functions: 276
    Number of Cartesian functions: 315
    Spherical Harmonics?: true
    Max angular momentum: 3

  ==> DFT Potential <==

   => Composite Functional: SCAN-D3ZERO2B <= 

    SCAN Meta-GGA XC Functional
(10.1103/PhysRevLett.115.036402)
    J. Sun, A. Ruzsinszky, J. P. Perdew  Phys. Rev. Lett. 115, 036402, 2015


    Deriv               =              1
    GGA                 =           TRUE
    Meta                =           TRUE

    Exchange Hybrid     =          FALSE
    MP2 Hybrid          =          FALSE

   => Exchange Functionals <=

    1.0000   XC_MGGA_X_SCAN

   => Correlation Functionals <=

    1.0000   XC_MGGA_C_SCAN

   => LibXC Density Thresholds  <==

    XC_MGGA_C_SCAN:  1.00E-15 
    XC_MGGA_X_SCAN:  1.00E-15 

   => Molecular Quadrature <=

    Radial Scheme          =       TREUTLER
    Pruning Scheme         =           NONE
    Nuclear Scheme         =       TREUTLER

    Blocking Scheme        =         OCTREE
    BS radius alpha        =              1
    Pruning alpha          =              1
    Radial Points          =             75
    Spherical Points       =            302
    Total Points           =         198254
    Total Blocks           =           1513
    Max Points             =            256
    Max Functions          =            269
    Weights Tolerance      =       1.00E-15

   => Loading Basis Set <=

    Name: (AUG-CC-PVTZ AUX)
    Role: JKFIT
    Keyword: DF_BASIS_SCF
    atoms 1-2, 4-5, 7-8 entry H          line    70 file /home/gridsan/kfisher/.conda/envs/p4env/share/psi4/basis/aug-cc-pvtz-jkfit.gbs 
    atoms 3, 6, 9       entry O          line   286 file /home/gridsan/kfisher/.conda/envs/p4env/share/psi4/basis/aug-cc-pvtz-jkfit.gbs 

  ==> Integral Setup <==

  DFHelper Memory: AOs need 0.321 GiB; user supplied 11.167 GiB. Using in-core AOs.

  ==> MemDFJK: Density-Fitted J/K Matrices <==

    J tasked:                   Yes
    K tasked:                    No
    wK tasked:                   No
    OpenMP threads:               1
    Memory [MiB]:             11435
    Algorithm:                 Core
    Schwarz Cutoff:           1E-12
    Mask sparsity (%):       9.3862
    Fitting Condition:        1E-10

   => Auxiliary Basis Set <=

  Basis Set: (AUG-CC-PVTZ AUX)
    Blend: AUG-CC-PVTZ-JKFIT
    Number of shells: 174
    Number of basis functions: 588
    Number of Cartesian functions: 723
    Spherical Harmonics?: true
    Max angular momentum: 4

  Cached 100.0% of DFT collocation blocks in 2.803 [GiB].

  Minimum eigenvalue in the overlap matrix is 1.6624807431E-04.
  Reciprocal condition number of the overlap matrix is 1.7367775616E-05.
    Using symmetric orthogonalization.

  ==> Pre-Iterations <==

  SCF Guess: Superposition of Atomic Densities via on-the-fly atomic UHF (no occupation information).

   -------------------------
    Irrep   Nso     Nmo    
   -------------------------
     A        276     276 
   -------------------------
    Total     276     276
   -------------------------

  ==> Iterations <==

                           Total Energy        Delta E     RMS |[F,P]|

   @DF-RKS iter SAD:  -152.13992969149197   -1.52140e+02   0.00000e+00 
   @DF-RKS iter   1:  -152.50281161552007   -3.62882e-01   3.71019e-03 DIIS/ADIIS
   @DF-RKS iter   2:  -151.46449728683584    1.03831e+00   6.81354e-03 DIIS/ADIIS
   @DF-RKS iter   3:  -152.86517224783316   -1.40067e+00   2.80990e-04 DIIS/ADIIS
   @DF-RKS iter   4:  -152.86764766748811   -2.47542e-03   1.01218e-04 DIIS/ADIIS
   @DF-RKS iter   5:  -152.86780049346325   -1.52826e-04   6.47220e-05 DIIS
   @DF-RKS iter   6:  -152.86790907780315   -1.08584e-04   6.63383e-06 DIIS
   @DF-RKS iter   7:  -152.86791027675847   -1.19896e-06   5.92882e-07 DIIS
   @DF-RKS iter   8:  -152.86791028569135   -8.93289e-09   1.80251e-07 DIIS
   @DF-RKS iter   9:  -152.86791028665826   -9.66907e-10   3.17119e-08 DIIS
   @DF-RKS iter  10:  -152.86791028668935   -3.10934e-11   2.55634e-09 DIIS
   @DF-RKS iter  11:  -152.86791028668901    3.41061e-13   6.32399e-10 DIIS
   @DF-RKS iter  12:  -152.86791028668912   -1.13687e-13   9.23300e-11 DIIS
  Energy and wave function converged.


  ==> Post-Iterations <==

   Electrons on quadrature grid:
      Ntotal   =   19.9999992546 ; deviation = -7.454e-07 

    Orbital Energies [Eh]
    ---------------------

    Doubly Occupied:                                                      

       1A    -18.989053     2A    -18.949952     3A     -0.996207  
       4A     -0.959435     5A     -0.520381     6A     -0.487054  
       7A     -0.373627     8A     -0.334821     9A     -0.299200  
      10A     -0.262982  

    Virtual:                                                              

      11A     -0.024022    12A      0.013172    13A      0.027527  
      14A      0.044241    15A      0.052945    16A      0.060030  
      17A      0.080474    18A      0.086609    19A      0.096853  
      20A      0.117189    21A      0.127159    22A      0.129067  
      23A      0.138317    24A      0.150808    25A      0.155395  
      26A      0.166135    27A      0.168477    28A      0.182997  
      29A      0.191313    30A      0.200915    31A      0.218859  
      32A      0.227419    33A      0.250418    34A      0.260724  
      35A      0.271255    36A      0.283320    37A      0.291014  
      38A      0.299771    39A      0.324264    40A      0.330327  
      41A      0.333967    42A      0.346311    43A      0.354795  
      44A      0.360083    45A      0.363306    46A      0.375970  
      47A      0.382696    48A      0.391636    49A      0.414462  
      50A      0.455563    51A      0.490617    52A      0.502805  
      53A      0.527696    54A      0.538747    55A      0.568484  
      56A      0.584336    57A      0.602031    58A      0.615687  
      59A      0.627373    60A      0.640406    61A      0.645455  
      62A      0.672381    63A      0.701355    64A      0.715990  
      65A      0.736178    66A      0.742659    67A      0.754692  
      68A      0.772535    69A      0.777387    70A      0.794746  
      71A      0.801830    72A      0.803961    73A      0.819439  
      74A      0.831086    75A      0.850785    76A      0.853684  
      77A      0.864022    78A      0.867182    79A      0.890974  
      80A      0.894119    81A      0.904637    82A      0.914808  
      83A      0.934228    84A      0.942052    85A      0.946108  
      86A      0.956572    87A      0.973282    88A      1.000004  
      89A      1.021268    90A      1.032461    91A      1.044044  
      92A      1.054907    93A      1.068471    94A      1.078793  
      95A      1.091872    96A      1.105023    97A      1.117938  
      98A      1.140043    99A      1.155341   100A      1.163995  
     101A      1.180822   102A      1.185482   103A      1.207702  
     104A      1.244916   105A      1.270922   106A      1.303539  
     107A      1.330021   108A      1.348902   109A      1.396104  
     110A      1.416029   111A      1.433397   112A      1.447198  
     113A      1.466037   114A      1.490942   115A      1.512547  
     116A      1.526614   117A      1.547742   118A      1.628634  
     119A      1.648339   120A      1.665834   121A      1.668369  
     122A      1.726412   123A      1.739985   124A      1.762421  
     125A      1.821546   126A      1.836134   127A      1.876521  
     128A      1.902283   129A      1.949609   130A      1.977993  
     131A      2.006384   132A      2.092707   133A      2.130510  
     134A      2.149709   135A      2.181183   136A      2.185721  
     137A      2.211276   138A      2.223307   139A      2.245391  
     140A      2.280102   141A      2.307013   142A      2.332610  
     143A      2.368596   144A      2.374662   145A      2.414426  
     146A      2.441027   147A      2.471597   148A      2.489204  
     149A      2.530034   150A      2.543611   151A      2.554918  
     152A      2.576956   153A      2.599707   154A      2.613938  
     155A      2.641712   156A      2.649714   157A      2.704812  
     158A      2.716453   159A      2.741203   160A      2.785104  
     161A      2.849445   162A      2.863575   163A      2.890236  
     164A      2.905570   165A      3.013516   166A      3.138338  
     167A      3.173710   168A      3.204495   169A      3.253297  
     170A      3.370119   171A      3.427299   172A      3.512765  
     173A      3.554090   174A      3.575628   175A      3.672497  
     176A      3.702716   177A      3.856307   178A      3.912471  
     179A      3.925534   180A      3.974616   181A      4.006791  
     182A      4.098297   183A      4.124255   184A      4.161915  
     185A      4.172892   186A      4.244289   187A      4.265038  
     188A      4.270870   189A      4.284134   190A      4.289302  
     191A      4.320626   192A      4.340711   193A      4.372225  
     194A      4.388821   195A      4.436776   196A      4.466814  
     197A      4.502366   198A      4.534653   199A      4.552082  
     200A      4.591168   201A      4.606630   202A      4.671220  
     203A      4.706088   204A      4.808828   205A      4.938740  
     206A      4.948776   207A      4.997805   208A      5.024504  
     209A      5.035746   210A      5.047095   211A      5.079541  
     212A      5.097211   213A      5.120095   214A      5.128533  
     215A      5.175893   216A      5.247207   217A      5.292996  
     218A      5.336652   219A      5.347284   220A      5.468124  
     221A      5.535697   222A      5.548045   223A      5.600760  
     224A      5.753232   225A      5.834055   226A      5.907793  
     227A      5.960037   228A      6.257947   229A      6.276650  
     230A      6.312158   231A      6.335681   232A      6.442333  
     233A      6.516561   234A      6.598181   235A      6.619530  
     236A      6.682826   237A      6.859701   238A      6.894912  
     239A      6.916734   240A      6.943608   241A      6.963428  
     242A      6.969596   243A      6.985970   244A      7.022189  
     245A      7.038212   246A      7.062924   247A      7.104785  
     248A      7.180549   249A      7.209778   250A      7.235604  
     251A      7.537822   252A      7.604822   253A      7.613653  
     254A      7.682280   255A      7.756549   256A      7.875683  
     257A      7.892561   258A      8.150839   259A      8.217614  
     260A      8.399195   261A      8.479218   262A      8.566964  
     263A      8.748186   264A      8.815326   265A      9.847091  
     266A      9.986276   267A     10.109613   268A     10.274835  
     269A     11.084003   270A     11.806789   271A     12.217441  
     272A     13.422146   273A     13.892439   274A     14.983396  
     275A     16.399878   276A     64.862029  

    Final Occupation by Irrep:
              A 
    DOCC [    10 ]
    NA   [    10 ]
    NB   [    10 ]

  @DF-RKS Final Energy:  -152.86791028668912

   => Energetics <=

    Nuclear Repulsion Energy =             34.2515905686247990
    One-Electron Energy =                -277.8724693072516629
    Two-Electron Energy =                 109.3351328606807158
    DFT Exchange-Correlation Energy =     -18.5819556987429770
    Empirical Dispersion Energy =          -0.0002087100000000
    VV10 Nonlocal Energy =                  0.0000000000000000
    Total Energy =                       -152.8679102866891242

Computation Completed


Properties will be evaluated at   0.000000,   0.000000,   0.000000 [a0]

Properties computed using the SCF density matrix


 Multipole Moments:

 ------------------------------------------------------------------------------------
     Multipole            Electronic (a.u.)      Nuclear  (a.u.)        Total (a.u.)
 ------------------------------------------------------------------------------------

 L = 1.  Multiply by 2.5417464519 to convert [e a0] to [Debye]
 Dipole X            :       -138.2931690          138.7170183            0.4238494
 Dipole Y            :        -73.3248590           73.8631290            0.5382699
 Dipole Z            :         24.6033815          -23.9760136            0.6273678
 Magnitude           :                                                    0.9289635

 ------------------------------------------------------------------------------------

*** tstop() called on d-19-15-2 at Mon Sep 18 09:57:11 2023
Module time:
	user time   =      53.29 seconds =       0.89 minutes
	system time =       0.17 seconds =       0.00 minutes
	total time  =         53 seconds =       0.88 minutes
Total time:
	user time   =   45149.39 seconds =     752.49 minutes
	system time =   22539.24 seconds =     375.65 minutes
	total time  =      76127 seconds =    1268.78 minutes

    Psi4 stopped on: Monday, 18 September 2023 09:57AM
    Psi4 wall time for execution: 0:00:53.62


    -----------------------------------------------------------------------
          Psi4: An Open-Source Ab Initio Electronic Structure Package
                               Psi4 1.7 release

                         Git: Rev {HEAD} 6ce35a5 


    D. G. A. Smith, L. A. Burns, A. C. Simmonett, R. M. Parrish,
    M. C. Schieber, R. Galvelis, P. Kraus, H. Kruse, R. Di Remigio,
    A. Alenaizan, A. M. James, S. Lehtola, J. P. Misiewicz, M. Scheurer,
    R. A. Shaw, J. B. Schriber, Y. Xie, Z. L. Glick, D. A. Sirianni,
    J. S. O'Brien, J. M. Waldrop, A. Kumar, E. G. Hohenstein,
    B. P. Pritchard, B. R. Brooks, H. F. Schaefer III, A. Yu. Sokolov,
    K. Patkowski, A. E. DePrince III, U. Bozkaya, R. A. King,
    F. A. Evangelista, J. M. Turney, T. D. Crawford, C. D. Sherrill,
    J. Chem. Phys. 152(18) 184108 (2020). https://doi.org/10.1063/5.0006002

                            Additional Code Authors
    E. T. Seidl, C. L. Janssen, E. F. Valeev, M. L. Leininger,
    J. F. Gonthier, R. M. Richard, H. R. McAlexander, M. Saitow, X. Wang,
    P. Verma, M. H. Lechner, A. Jiang, S. Behnle, A. G. Heide,
    M. F. Herbst, and D. L. Poole

             Previous Authors, Complete List of Code Contributors,
                       and Citations for Specific Modules
    https://github.com/psi4/psi4/blob/master/codemeta.json
    https://github.com/psi4/psi4/graphs/contributors
    http://psicode.org/psi4manual/master/introduction.html#citing-psifour

    -----------------------------------------------------------------------


    Psi4 started on: Sunday, 17 September 2023 12:48PM

    Process ID: 258105
    Host:       d-19-15-2
    PSIDATADIR: /home/gridsan/kfisher/.conda/envs/p4env/share/psi4
    Memory:     18.6 GiB
    Threads:    1
    
  ==> Input QCSchema <==

--------------------------------------------------------------------------
{'driver': 'energy',
 'extras': {'psiapi': True, 'wfn_qcvars_only': True},
 'id': None,
 'keywords': {'D_CONVERGENCE': 1e-10, 'E_CONVERGENCE': 1e-10, 'function_kwargs': {'dft_functional': 'scan-d3zero2b'}},
 'model': {'basis': 'aug-cc-pvtz', 'method': 'scf'},
 'molecule': {'atom_labels': ['', '', '', '', '', '', '', '', ''],
              'atomic_numbers': [1, 1, 8, 1, 1, 8, 1, 1, 8],
              'fix_com': True,
              'fix_orientation': True,
              'fix_symmetry': 'c1',
              'fragment_charges': [0.0, 0.0, 0.0],
              'fragment_multiplicities': [1, 1, 1],
              'fragments': [[0, 1, 2], [3, 4, 5], [6, 7, 8]],
              'geometry': [1.8482832032045564, 4.731014317170273, -7.990675703222834, 1.0081639368493027,
                           2.355881385030847, -6.390948630834015, 1.8746355096131109, 4.031888707562887,
                           -6.324247629187875, 6.689770437237563, 2.6766848258764226, -2.2144622186513105,
                           4.737047683565545, 2.625455371067369, -4.434821743416859, 5.9874398521214, 1.63660420845311,
                           -3.539735843175062, 9.4672772541677, 6.25728191470608, 0.8720680155816128, 7.775399161257309,
                           4.274877743007549, 2.254691294225155, 7.768500621550017, 5.616999428672693,
                           0.9830497223063643],
              'mass_numbers': [1, 1, 16, 1, 1, 16, 1, 1, 16],
              'masses': [1.00782503223, 1.00782503223, 15.99491461957, 1.00782503223, 1.00782503223, 15.99491461957,
                         1.00782503223, 1.00782503223, 15.99491461957],
              'molecular_charge': 0.0,
              'molecular_multiplicity': 1,
              'name': 'H6O3',
              'provenance': {'creator': 'QCElemental',
                             'routine': 'qcelemental.molparse.from_string',
                             'version': 'v0.25.1'},
              'real': [True, True, True, False, False, False, True, True, True],
              'schema_name': 'qcschema_molecule',
              'schema_version': 2,
              'symbols': ['H', 'H', 'O', 'H', 'H', 'O', 'H', 'H', 'O'],
              'validated': True},
 'protocols': {'stdout': True},
 'provenance': {'creator': 'QCElemental', 'routine': 'qcelemental.models.results', 'version': 'v0.25.1'},
 'schema_name': 'qcschema_input',
 'schema_version': 1}
--------------------------------------------------------------------------

Scratch directory: /home/gridsan/kfisher/scratch/

*** tstart() called on d-19-15-2
*** at Mon Sep 18 09:57:11 2023

   => Loading Basis Set <=

    Name: AUG-CC-PVTZ
    Role: ORBITAL
    Keyword: BASIS
    atoms 1-2, 4-5, 7-8 entry H          line    40 file /home/gridsan/kfisher/.conda/envs/p4env/share/psi4/basis/aug-cc-pvtz.gbs 
    atoms 3, 6, 9       entry O          line   331 file /home/gridsan/kfisher/.conda/envs/p4env/share/psi4/basis/aug-cc-pvtz.gbs 

   => SCAN-D3: Empirical Dispersion <=

    Grimme's -D3 (zero-damping) Dispersion Correction
    Grimme S.; Antony J.; Ehrlich S.; Krieg H. (2010), J. Chem. Phys., 132: 154104
    Parametrisation from:    J.G. Brandenburg, J. E. Bates, J. Sun, J.P. Perdew, Phys. Rev. B 94, 115144, 2016

        s6 =       1.000000
        s8 =       0.000000
       sr6 =       1.324000
    alpha6 =      14.000000
       sr8 =       1.000000


         ---------------------------------------------------------
                                   SCF
               by Justin Turney, Rob Parrish, Andy Simmonett
                          and Daniel G. A. Smith
                              RKS Reference
                        1 Threads,  19073 MiB Core
         ---------------------------------------------------------

  ==> Geometry <==

    Molecular point group: c1
    Full point group: C1

    Geometry (in Bohr), charge = 0, multiplicity = 1:

       Center              X                  Y                   Z               Mass       
    ------------   -----------------  -----------------  -----------------  -----------------
         H            1.848283203205     4.731014317170    -7.990675703223     1.007825032230
         H            1.008163936849     2.355881385031    -6.390948630834     1.007825032230
         O            1.874635509613     4.031888707563    -6.324247629188    15.994914619570
      Gh(H)           6.689770437238     2.676684825876    -2.214462218651     1.007825032230
      Gh(H)           4.737047683566     2.625455371067    -4.434821743417     1.007825032230
      Gh(O)           5.987439852121     1.636604208453    -3.539735843175    15.994914619570
         H            9.467277254168     6.257281914706     0.872068015582     1.007825032230
         H            7.775399161257     4.274877743008     2.254691294225     1.007825032230
         O            7.768500621550     5.616999428673     0.983049722306    15.994914619570

  Running in c1 symmetry.

  Rotational constants: A =      0.06433  B =      0.02065  C =      0.01679 [cm^-1]
  Rotational constants: A =   1928.62339  B =    619.15287  C =    503.40988 [MHz]
  Nuclear repulsion =   28.147051907959927

  Charge       = 0
  Multiplicity = 1
  Electrons    = 20
  Nalpha       = 10
  Nbeta        = 10

  ==> Algorithm <==

  SCF Algorithm Type is DF.
  DIIS enabled.
  MOM disabled.
  Fractional occupation disabled.
  Guess Type is SAD.
  Energy threshold   = 1.00e-10
  Density threshold  = 1.00e-10
  Integral threshold = 1.00e-12

  ==> Primary Basis <==

  Basis Set: AUG-CC-PVTZ
    Blend: AUG-CC-PVTZ
    Number of shells: 96
    Number of basis functions: 276
    Number of Cartesian functions: 315
    Spherical Harmonics?: true
    Max angular momentum: 3

  ==> DFT Potential <==

   => Composite Functional: SCAN-D3ZERO2B <= 

    SCAN Meta-GGA XC Functional
(10.1103/PhysRevLett.115.036402)
    J. Sun, A. Ruzsinszky, J. P. Perdew  Phys. Rev. Lett. 115, 036402, 2015


    Deriv               =              1
    GGA                 =           TRUE
    Meta                =           TRUE

    Exchange Hybrid     =          FALSE
    MP2 Hybrid          =          FALSE

   => Exchange Functionals <=

    1.0000   XC_MGGA_X_SCAN

   => Correlation Functionals <=

    1.0000   XC_MGGA_C_SCAN

   => LibXC Density Thresholds  <==

    XC_MGGA_C_SCAN:  1.00E-15 
    XC_MGGA_X_SCAN:  1.00E-15 

   => Molecular Quadrature <=

    Radial Scheme          =       TREUTLER
    Pruning Scheme         =           NONE
    Nuclear Scheme         =       TREUTLER

    Blocking Scheme        =         OCTREE
    BS radius alpha        =              1
    Pruning alpha          =              1
    Radial Points          =             75
    Spherical Points       =            302
    Total Points           =         198254
    Total Blocks           =           1513
    Max Points             =            256
    Max Functions          =            269
    Weights Tolerance      =       1.00E-15

   => Loading Basis Set <=

    Name: (AUG-CC-PVTZ AUX)
    Role: JKFIT
    Keyword: DF_BASIS_SCF
    atoms 1-2, 4-5, 7-8 entry H          line    70 file /home/gridsan/kfisher/.conda/envs/p4env/share/psi4/basis/aug-cc-pvtz-jkfit.gbs 
    atoms 3, 6, 9       entry O          line   286 file /home/gridsan/kfisher/.conda/envs/p4env/share/psi4/basis/aug-cc-pvtz-jkfit.gbs 

  ==> Integral Setup <==

  DFHelper Memory: AOs need 0.321 GiB; user supplied 11.167 GiB. Using in-core AOs.

  ==> MemDFJK: Density-Fitted J/K Matrices <==

    J tasked:                   Yes
    K tasked:                    No
    wK tasked:                   No
    OpenMP threads:               1
    Memory [MiB]:             11435
    Algorithm:                 Core
    Schwarz Cutoff:           1E-12
    Mask sparsity (%):       9.3862
    Fitting Condition:        1E-10

   => Auxiliary Basis Set <=

  Basis Set: (AUG-CC-PVTZ AUX)
    Blend: AUG-CC-PVTZ-JKFIT
    Number of shells: 174
    Number of basis functions: 588
    Number of Cartesian functions: 723
    Spherical Harmonics?: true
    Max angular momentum: 4

  Cached 100.0% of DFT collocation blocks in 2.803 [GiB].

  Minimum eigenvalue in the overlap matrix is 1.6624807431E-04.
  Reciprocal condition number of the overlap matrix is 1.7367775616E-05.
    Using symmetric orthogonalization.

  ==> Pre-Iterations <==

  SCF Guess: Superposition of Atomic Densities via on-the-fly atomic UHF (no occupation information).

   -------------------------
    Irrep   Nso     Nmo    
   -------------------------
     A        276     276 
   -------------------------
    Total     276     276
   -------------------------

  ==> Iterations <==

                           Total Energy        Delta E     RMS |[F,P]|

   @DF-RKS iter SAD:  -152.11180910904955   -1.52112e+02   0.00000e+00 
   @DF-RKS iter   1:  -152.48170963260264   -3.69901e-01   3.75203e-03 DIIS/ADIIS
   @DF-RKS iter   2:  -151.24164257642968    1.24007e+00   7.23325e-03 DIIS/ADIIS
   @DF-RKS iter   3:  -152.85638207500088   -1.61474e+00   2.89651e-04 DIIS/ADIIS
   @DF-RKS iter   4:  -152.85950830201449   -3.12623e-03   5.20148e-05 DIIS
   @DF-RKS iter   5:  -152.85954546614715   -3.71641e-05   3.68498e-05 DIIS
   @DF-RKS iter   6:  -152.85957499058037   -2.95244e-05   1.47382e-05 DIIS
   @DF-RKS iter   7:  -152.85958063657031   -5.64599e-06   5.63205e-07 DIIS
   @DF-RKS iter   8:  -152.85958064418219   -7.61187e-09   1.15881e-07 DIIS
   @DF-RKS iter   9:  -152.85958064453979   -3.57602e-10   3.23723e-08 DIIS
   @DF-RKS iter  10:  -152.85958064457247   -3.26850e-11   2.17733e-09 DIIS
   @DF-RKS iter  11:  -152.85958064457290   -4.26326e-13   2.06746e-10 DIIS
   @DF-RKS iter  12:  -152.85958064457270    1.98952e-13   6.54664e-11 DIIS
  Energy and wave function converged.


  ==> Post-Iterations <==

   Electrons on quadrature grid:
      Ntotal   =   20.0000026410 ; deviation = 2.641e-06 

    Orbital Energies [Eh]
    ---------------------

    Doubly Occupied:                                                      

       1A    -18.963307     2A    -18.962033     3A     -0.969378  
       4A     -0.966761     5A     -0.494638     6A     -0.493484  
       7A     -0.345261     8A     -0.343916     9A     -0.271745  
      10A     -0.271444  

    Virtual:                                                              

      11A     -0.010073    12A     -0.003661    13A      0.032258  
      14A      0.041215    15A      0.048465    16A      0.063989  
      17A      0.086718    18A      0.096765    19A      0.098264  
      20A      0.126641    21A      0.130458    22A      0.131579  
      23A      0.136700    24A      0.147558    25A      0.150289  
      26A      0.166831    27A      0.177134    28A      0.188581  
      29A      0.191963    30A      0.200031    31A      0.216704  
      32A      0.225638    33A      0.250553    34A      0.255264  
      35A      0.261982    36A      0.304761    37A      0.320355  
      38A      0.330322    39A      0.335883    40A      0.336139  
      41A      0.349563    42A      0.350468    43A      0.354537  
      44A      0.359277    45A      0.367979    46A      0.374823  
      47A      0.385644    48A      0.407240    49A      0.410090  
      50A      0.455752    51A      0.467995    52A      0.511564  
      53A      0.535026    54A      0.545114    55A      0.555366  
      56A      0.583597    57A      0.624708    58A      0.634981  
      59A      0.653478    60A      0.663798    61A      0.680123  
      62A      0.691639    63A      0.703154    64A      0.712478  
      65A      0.728721    66A      0.735734    67A      0.768302  
      68A      0.780048    69A      0.789075    70A      0.815596  
      71A      0.817787    72A      0.821357    73A      0.841017  
      74A      0.855053    75A      0.860691    76A      0.866261  
      77A      0.875391    78A      0.883964    79A      0.893241  
      80A      0.901069    81A      0.918579    82A      0.937553  
      83A      0.939270    84A      0.950855    85A      0.954244  
      86A      0.972884    87A      0.982803    88A      0.998671  
      89A      1.018705    90A      1.027398    91A      1.062345  
      92A      1.067691    93A      1.082483    94A      1.102169  
      95A      1.111440    96A      1.114753    97A      1.127372  
      98A      1.145523    99A      1.151362   100A      1.167453  
     101A      1.185685   102A      1.219022   103A      1.225855  
     104A      1.260119   105A      1.282756   106A      1.322793  
     107A      1.360039   108A      1.400982   109A      1.422499  
     110A      1.447671   111A      1.457888   112A      1.485123  
     113A      1.521065   114A      1.545500   115A      1.569123  
     116A      1.594427   117A      1.642080   118A      1.661402  
     119A      1.683276   120A      1.689225   121A      1.718127  
     122A      1.757712   123A      1.766186   124A      1.826306  
     125A      1.840106   126A      1.873395   127A      1.907628  
     128A      1.952402   129A      1.965149   130A      1.982485  
     131A      1.993362   132A      2.030655   133A      2.135389  
     134A      2.146380   135A      2.176726   136A      2.209070  
     137A      2.252224   138A      2.263996   139A      2.268953  
     140A      2.294318   141A      2.324378   142A      2.351118  
     143A      2.364393   144A      2.377162   145A      2.390294  
     146A      2.443645   147A      2.495767   148A      2.529478  
     149A      2.542854   150A      2.557864   151A      2.573614  
     152A      2.583916   153A      2.595160   154A      2.628378  
     155A      2.630710   156A      2.659051   157A      2.680905  
     158A      2.692317   159A      2.718306   160A      2.744576  
     161A      2.757895   162A      2.785223   163A      2.801564  
     164A      2.884288   165A      2.971942   166A      3.187813  
     167A      3.292426   168A      3.330839   169A      3.432603  
     170A      3.495446   171A      3.498708   172A      3.567894  
     173A      3.597232   174A      3.632325   175A      3.659278  
     176A      3.764476   177A      3.882791   178A      3.899187  
     179A      3.944010   180A      4.009045   181A      4.055906  
     182A      4.112858   183A      4.132591   184A      4.143427  
     185A      4.221230   186A      4.281042   187A      4.289343  
     188A      4.298841   189A      4.319187   190A      4.329282  
     191A      4.389908   192A      4.399698   193A      4.444809  
     194A      4.457033   195A      4.467495   196A      4.479788  
     197A      4.505929   198A      4.575002   199A      4.621410  
     200A      4.693559   201A      4.725903   202A      4.795977  
     203A      4.809755   204A      4.998574   205A      5.003755  
     206A      5.017485   207A      5.026546   208A      5.073584  
     209A      5.118025   210A      5.126708   211A      5.141675  
     212A      5.154297   213A      5.180079   214A      5.226803  
     215A      5.250619   216A      5.340066   217A      5.361845  
     218A      5.400336   219A      5.540749   220A      5.569670  
     221A      5.590642   222A      5.729505   223A      5.742336  
     224A      5.827653   225A      5.915775   226A      5.939074  
     227A      6.046121   228A      6.278060   229A      6.289257  
     230A      6.399802   231A      6.469576   232A      6.545410  
     233A      6.584999   234A      6.628408   235A      6.712769  
     236A      6.859060   237A      6.915761   238A      6.922126  
     239A      6.946291   240A      6.957302   241A      6.975086  
     242A      6.981208   243A      6.994716   244A      7.057040  
     245A      7.067557   246A      7.073635   247A      7.094361  
     248A      7.161934   249A      7.211355   250A      7.288611  
     251A      7.404703   252A      7.627664   253A      7.630522  
     254A      7.636083   255A      7.638907   256A      7.726474  
     257A      7.837998   258A      8.122388   259A      8.352636  
     260A      8.356887   261A      8.479171   262A      8.509745  
     263A      9.017237   264A      9.195057   265A      9.715011  
     266A      9.859679   267A     10.178192   268A     10.381636  
     269A     11.261472   270A     11.786880   271A     12.241012  
     272A     13.778799   273A     14.130710   274A     15.039294  
     275A     15.175666   276A     67.408052  

    Final Occupation by Irrep:
              A 
    DOCC [    10 ]
    NA   [    10 ]
    NB   [    10 ]

  @DF-RKS Final Energy:  -152.85958064457270

   => Energetics <=

    Nuclear Repulsion Energy =             28.1470519079599271
    One-Electron Energy =                -265.8369668081944610
    Two-Electron Energy =                 103.3980795693341577
    DFT Exchange-Correlation Energy =     -18.5677108436723408
    Empirical Dispersion Energy =          -0.0000344700000000
    VV10 Nonlocal Energy =                  0.0000000000000000
    Total Energy =                       -152.8595806445727021

Computation Completed


Properties will be evaluated at   0.000000,   0.000000,   0.000000 [a0]

Properties computed using the SCF density matrix


 Multipole Moments:

[...]
    Two-Electron Energy =                  46.6523514489894069
    DFT Exchange-Correlation Energy =      -9.2908714399668231
    Empirical Dispersion Energy =          -0.0000001600000000
    VV10 Nonlocal Energy =                  0.0000000000000000
    Total Energy =                        -76.4309028891946838

Computation Completed


Properties will be evaluated at   0.000000,   0.000000,   0.000000 [a0]

Properties computed using the SCF density matrix


 Multipole Moments:

 ------------------------------------------------------------------------------------
     Multipole            Electronic (a.u.)      Nuclear  (a.u.)        Total (a.u.)
 ------------------------------------------------------------------------------------

 L = 1.  Multiply by 2.5417464519 to convert [e a0] to [Debye]
 Dipole X            :        -59.5054692           59.3263369           -0.1791323
 Dipole Y            :        -17.7303428           18.3949739            0.6646310
 Dipole Z            :         35.1082904          -34.9671707            0.1411197
 Magnitude           :                                                    0.7026646

 ------------------------------------------------------------------------------------

*** tstop() called on d-19-15-2 at Mon Sep 18 10:03:37 2023
Module time:
	user time   =      21.57 seconds =       0.36 minutes
	system time =       0.06 seconds =       0.00 minutes
	total time  =         22 seconds =       0.37 minutes
Total time:
	user time   =   45531.93 seconds =     758.87 minutes
	system time =   22540.99 seconds =     375.68 minutes
	total time  =      76513 seconds =    1275.22 minutes

    Psi4 stopped on: Monday, 18 September 2023 10:03AM
    Psi4 wall time for execution: 0:00:21.92


    -----------------------------------------------------------------------
          Psi4: An Open-Source Ab Initio Electronic Structure Package
                               Psi4 1.7 release

                         Git: Rev {HEAD} 6ce35a5 


    D. G. A. Smith, L. A. Burns, A. C. Simmonett, R. M. Parrish,
    M. C. Schieber, R. Galvelis, P. Kraus, H. Kruse, R. Di Remigio,
    A. Alenaizan, A. M. James, S. Lehtola, J. P. Misiewicz, M. Scheurer,
    R. A. Shaw, J. B. Schriber, Y. Xie, Z. L. Glick, D. A. Sirianni,
    J. S. O'Brien, J. M. Waldrop, A. Kumar, E. G. Hohenstein,
    B. P. Pritchard, B. R. Brooks, H. F. Schaefer III, A. Yu. Sokolov,
    K. Patkowski, A. E. DePrince III, U. Bozkaya, R. A. King,
    F. A. Evangelista, J. M. Turney, T. D. Crawford, C. D. Sherrill,
    J. Chem. Phys. 152(18) 184108 (2020). https://doi.org/10.1063/5.0006002

                            Additional Code Authors
    E. T. Seidl, C. L. Janssen, E. F. Valeev, M. L. Leininger,
    J. F. Gonthier, R. M. Richard, H. R. McAlexander, M. Saitow, X. Wang,
    P. Verma, M. H. Lechner, A. Jiang, S. Behnle, A. G. Heide,
    M. F. Herbst, and D. L. Poole

             Previous Authors, Complete List of Code Contributors,
                       and Citations for Specific Modules
    https://github.com/psi4/psi4/blob/master/codemeta.json
    https://github.com/psi4/psi4/graphs/contributors
    http://psicode.org/psi4manual/master/introduction.html#citing-psifour

    -----------------------------------------------------------------------


    Psi4 started on: Sunday, 17 September 2023 12:48PM

    Process ID: 258105
    Host:       d-19-15-2
    PSIDATADIR: /home/gridsan/kfisher/.conda/envs/p4env/share/psi4
    Memory:     18.6 GiB
    Threads:    1
    
  ==> Input QCSchema <==

--------------------------------------------------------------------------
{'driver': 'energy',
 'extras': {'psiapi': True, 'wfn_qcvars_only': True},
 'id': None,
 'keywords': {'D_CONVERGENCE': 1e-10, 'E_CONVERGENCE': 1e-10, 'function_kwargs': {'dft_functional': 'scan-d3zero2b'}},
 'model': {'basis': 'aug-cc-pvtz', 'method': 'scf'},
 'molecule': {'atom_labels': ['', '', '', '', '', ''],
              'atomic_numbers': [1, 1, 8, 1, 1, 8],
              'fix_com': True,
              'fix_orientation': True,
              'fix_symmetry': 'c1',
              'fragment_charges': [0.0, 0.0],
              'fragment_multiplicities': [1, 1],
              'fragments': [[0, 1, 2], [3, 4, 5]],
              'geometry': [6.689770437237563, 2.6766848258764226, -2.2144622186513105, 4.737047683565545,
                           2.625455371067369, -4.434821743416859, 5.9874398521214, 1.63660420845311, -3.539735843175062,
                           9.4672772541677, 6.25728191470608, 0.8720680155816128, 7.775399161257309, 4.274877743007549,
                           2.254691294225155, 7.768500621550017, 5.616999428672693, 0.9830497223063643],
              'mass_numbers': [1, 1, 16, 1, 1, 16],
              'masses': [1.00782503223, 1.00782503223, 15.99491461957, 1.00782503223, 1.00782503223, 15.99491461957],
              'molecular_charge': 0.0,
              'molecular_multiplicity': 1,
              'name': 'H4O2',
              'provenance': {'creator': 'QCElemental',
                             'routine': 'qcelemental.molparse.from_string',
                             'version': 'v0.25.1'},
              'real': [True, True, True, True, True, True],
              'schema_name': 'qcschema_molecule',
              'schema_version': 2,
              'symbols': ['H', 'H', 'O', 'H', 'H', 'O'],
              'validated': True},
 'protocols': {'stdout': True},
 'provenance': {'creator': 'QCElemental', 'routine': 'qcelemental.models.results', 'version': 'v0.25.1'},
 'schema_name': 'qcschema_input',
 'schema_version': 1}
--------------------------------------------------------------------------

Scratch directory: /home/gridsan/kfisher/scratch/

*** tstart() called on d-19-15-2
*** at Mon Sep 18 10:03:37 2023

   => Loading Basis Set <=

    Name: AUG-CC-PVTZ
    Role: ORBITAL
    Keyword: BASIS
    atoms 1-2, 4-5 entry H          line    40 file /home/gridsan/kfisher/.conda/envs/p4env/share/psi4/basis/aug-cc-pvtz.gbs 
    atoms 3, 6     entry O          line   331 file /home/gridsan/kfisher/.conda/envs/p4env/share/psi4/basis/aug-cc-pvtz.gbs 

   => SCAN-D3: Empirical Dispersion <=

    Grimme's -D3 (zero-damping) Dispersion Correction
    Grimme S.; Antony J.; Ehrlich S.; Krieg H. (2010), J. Chem. Phys., 132: 154104
    Parametrisation from:    J.G. Brandenburg, J. E. Bates, J. Sun, J.P. Perdew, Phys. Rev. B 94, 115144, 2016

        s6 =       1.000000
        s8 =       0.000000
       sr6 =       1.324000
    alpha6 =      14.000000
       sr8 =       1.000000


         ---------------------------------------------------------
                                   SCF
               by Justin Turney, Rob Parrish, Andy Simmonett
                          and Daniel G. A. Smith
                              RKS Reference
                        1 Threads,  19073 MiB Core
         ---------------------------------------------------------

  ==> Geometry <==

    Molecular point group: c1
    Full point group: C1

    Geometry (in Bohr), charge = 0, multiplicity = 1:

       Center              X                  Y                   Z               Mass       
    ------------   -----------------  -----------------  -----------------  -----------------
         H            6.689770437238     2.676684825876    -2.214462218651     1.007825032230
         H            4.737047683566     2.625455371067    -4.434821743417     1.007825032230
         O            5.987439852121     1.636604208453    -3.539735843175    15.994914619570
         H            9.467277254168     6.257281914706     0.872068015582     1.007825032230
         H            7.775399161257     4.274877743008     2.254691294225     1.007825032230
         O            7.768500621550     5.616999428673     0.983049722306    15.994914619570

  Running in c1 symmetry.

  Rotational constants: A =      0.21195  B =      0.02567  C =      0.02299 [cm^-1]
  Rotational constants: A =   6354.06578  B =    769.60320  C =    689.25021 [MHz]
  Nuclear repulsion =   34.251590568624799

  Charge       = 0
  Multiplicity = 1
  Electrons    = 20
  Nalpha       = 10
  Nbeta        = 10

  ==> Algorithm <==

  SCF Algorithm Type is DF.
  DIIS enabled.
  MOM disabled.
  Fractional occupation disabled.
  Guess Type is SAD.
  Energy threshold   = 1.00e-10
  Density threshold  = 1.00e-10
  Integral threshold = 1.00e-12

  ==> Primary Basis <==

  Basis Set: AUG-CC-PVTZ
    Blend: AUG-CC-PVTZ
    Number of shells: 64
    Number of basis functions: 184
    Number of Cartesian functions: 210
    Spherical Harmonics?: true
    Max angular momentum: 3

  ==> DFT Potential <==

   => Composite Functional: SCAN-D3ZERO2B <= 

    SCAN Meta-GGA XC Functional
(10.1103/PhysRevLett.115.036402)
    J. Sun, A. Ruzsinszky, J. P. Perdew  Phys. Rev. Lett. 115, 036402, 2015


    Deriv               =              1
    GGA                 =           TRUE
    Meta                =           TRUE

    Exchange Hybrid     =          FALSE
    MP2 Hybrid          =          FALSE

   => Exchange Functionals <=

    1.0000   XC_MGGA_X_SCAN

   => Correlation Functionals <=

    1.0000   XC_MGGA_C_SCAN

   => LibXC Density Thresholds  <==

    XC_MGGA_C_SCAN:  1.00E-15 
    XC_MGGA_X_SCAN:  1.00E-15 

   => Molecular Quadrature <=

    Radial Scheme          =       TREUTLER
    Pruning Scheme         =           NONE
    Nuclear Scheme         =       TREUTLER

    Blocking Scheme        =         OCTREE
    BS radius alpha        =              1
    Pruning alpha          =              1
    Radial Points          =             75
    Spherical Points       =            302
    Total Points           =         132617
    Total Blocks           =           1041
    Max Points             =            256
    Max Functions          =            184
    Weights Tolerance      =       1.00E-15

   => Loading Basis Set <=

    Name: (AUG-CC-PVTZ AUX)
    Role: JKFIT
    Keyword: DF_BASIS_SCF
    atoms 1-2, 4-5 entry H          line    70 file /home/gridsan/kfisher/.conda/envs/p4env/share/psi4/basis/aug-cc-pvtz-jkfit.gbs 
    atoms 3, 6     entry O          line   286 file /home/gridsan/kfisher/.conda/envs/p4env/share/psi4/basis/aug-cc-pvtz-jkfit.gbs 

  ==> Integral Setup <==

  DFHelper Memory: AOs need 0.104 GiB; user supplied 12.510 GiB. Using in-core AOs.

  ==> MemDFJK: Density-Fitted J/K Matrices <==

    J tasked:                   Yes
    K tasked:                    No
    wK tasked:                   No
    OpenMP threads:               1
    Memory [MiB]:             12810
    Algorithm:                 Core
    Schwarz Cutoff:           1E-12
    Mask sparsity (%):       3.0364
    Fitting Condition:        1E-10

   => Auxiliary Basis Set <=

  Basis Set: (AUG-CC-PVTZ AUX)
    Blend: AUG-CC-PVTZ-JKFIT
    Number of shells: 116
    Number of basis functions: 392
    Number of Cartesian functions: 482
    Spherical Harmonics?: true
    Max angular momentum: 4

  Cached 100.0% of DFT collocation blocks in 1.460 [GiB].

  Minimum eigenvalue in the overlap matrix is 2.5281578161E-04.
  Reciprocal condition number of the overlap matrix is 2.9602819670E-05.
    Using symmetric orthogonalization.

  ==> Pre-Iterations <==

  SCF Guess: Superposition of Atomic Densities via on-the-fly atomic UHF (no occupation information).

   -------------------------
    Irrep   Nso     Nmo    
   -------------------------
     A        184     184 
   -------------------------
    Total     184     184
   -------------------------

  ==> Iterations <==

                           Total Energy        Delta E     RMS |[F,P]|

   @DF-RKS iter SAD:  -152.13993343889359   -1.52140e+02   0.00000e+00 
   @DF-RKS iter   1:  -152.50279596609516   -3.62863e-01   5.56520e-03 DIIS/ADIIS
   @DF-RKS iter   2:  -151.47791734141683    1.02488e+00   1.01852e-02 DIIS/ADIIS
   @DF-RKS iter   3:  -152.86610050754049   -1.38818e+00   3.34472e-04 DIIS/ADIIS
   @DF-RKS iter   4:  -152.86773496846675   -1.63446e-03   1.13228e-04 DIIS/ADIIS
   @DF-RKS iter   5:  -152.86777699300481   -4.20245e-05   9.44075e-05 DIIS
   @DF-RKS iter   6:  -152.86787924719965   -1.02254e-04   1.01904e-05 DIIS
   @DF-RKS iter   7:  -152.86788049336784   -1.24617e-06   8.20414e-07 DIIS
   @DF-RKS iter   8:  -152.86788050088185   -7.51402e-09   2.46169e-07 DIIS
   @DF-RKS iter   9:  -152.86788050168289   -8.01037e-10   4.53744e-08 DIIS
   @DF-RKS iter  10:  -152.86788050171106   -2.81659e-11   3.54817e-09 DIIS
   @DF-RKS iter  11:  -152.86788050171111   -5.68434e-14   8.32870e-10 DIIS
   @DF-RKS iter  12:  -152.86788050171114   -2.84217e-14   1.28796e-10 DIIS
   @DF-RKS iter  13:  -152.86788050171126   -1.13687e-13   2.67109e-11 DIIS
  Energy and wave function converged.


  ==> Post-Iterations <==

   Electrons on quadrature grid:
      Ntotal   =   20.0000004231 ; deviation = 4.231e-07 

    Orbital Energies [Eh]
    ---------------------

    Doubly Occupied:                                                      

       1A    -18.989064     2A    -18.949997     3A     -0.996210  
       4A     -0.959464     5A     -0.520389     6A     -0.487076  
       7A     -0.373635     8A     -0.334845     9A     -0.299204  
      10A     -0.263003  

    Virtual:                                                              

      11A     -0.024008    12A      0.015136    13A      0.028231  
      14A      0.048828    15A      0.081123    16A      0.091430  
      17A      0.105933    18A      0.116379    19A      0.126308  
      20A      0.137897    21A      0.150914    22A      0.162303  
      23A      0.173926    24A      0.185851    25A      0.198391  
      26A      0.207344    27A      0.218584    28A      0.253149  
      29A      0.266452    30A      0.299694    31A      0.314767  
      32A      0.328706    33A      0.331112    34A      0.347973  
      35A      0.355137    36A      0.363338    37A      0.371773  
      38A      0.479736    39A      0.491669    40A      0.523484  
      41A      0.534189    42A      0.575936    43A      0.595788  
      44A      0.608278    45A      0.618016    46A      0.629736  
      47A      0.644675    48A      0.667943    49A      0.719527  
      50A      0.733050    51A      0.766102    52A      0.775485  
      53A      0.783311    54A      0.806849    55A      0.820119  
      56A      0.834596    57A      0.846681    58A      0.855433  
      59A      0.881564    60A      0.887476    61A      0.917933  
      62A      0.920218    63A      0.933479    64A      0.951356  
      65A      0.960308    66A      1.009522    67A      1.042872  
      68A      1.050776    69A      1.066278    70A      1.099840  
      71A      1.115888    72A      1.131117    73A      1.151206  
      74A      1.173746    75A      1.215760    76A      1.230693  
      77A      1.322805    78A      1.389461    79A      1.406230  
      80A      1.428413    81A      1.466937    82A      1.483458  
      83A      1.530147    84A      1.583144    85A      1.631704  
      86A      1.660334    87A      1.702162    88A      1.722400  
      89A      1.864000    90A      1.889549    91A      1.949977  
      92A      2.068264    93A      2.097893    94A      2.124739  
      95A      2.154587    96A      2.186620    97A      2.200295  
      98A      2.208409    99A      2.236834   100A      2.270844  
     101A      2.283537   102A      2.313912   103A      2.356036  
     104A      2.364612   105A      2.424361   106A      2.476760  
     107A      2.526653   108A      2.546290   109A      2.577596  
     110A      2.605169   111A      2.633043   112A      2.687864  
     113A      2.713451   114A      2.751956   115A      2.785092  
     116A      2.846898   117A      3.469225   118A      3.514857  
     119A      3.571231   120A      3.689983   121A      3.827009  
     122A      3.875779   123A      3.901930   124A      3.979376  
     125A      4.083426   126A      4.108019   127A      4.123863  
     128A      4.140144   129A      4.221552   130A      4.260393  
     131A      4.262147   132A      4.276669   133A      4.287879  
     134A      4.300172   135A      4.340846   136A      4.359900  
     137A      4.387235   138A      4.446812   139A      4.464497  
     140A      4.525287   141A      4.628473   142A      4.710367  
     143A      4.993438   144A      5.030026   145A      5.031676  
     146A      5.045849   147A      5.104158   148A      5.123377  
     149A      5.171050   150A      5.181144   151A      5.305235  
     152A      5.327714   153A      5.539235   154A      5.552561  
     155A      5.902769   156A      5.922960   157A      6.255510  
     158A      6.287042   159A      6.437829   160A      6.459704  
     161A      6.593705   162A      6.612447   163A      6.823083  
     164A      6.886320   165A      6.909512   166A      6.932442  
     167A      6.939581   168A      6.948769   169A      6.965480  
     170A      7.036730   171A      7.045961   172A      7.061492  
     173A      7.098087   174A      7.143644   175A      7.195810  
     176A      7.422851   177A      7.598225   178A      7.603121  
     179A      7.661792   180A      7.699295   181A      8.458204  
     182A      8.494822   183A     14.943606   184A     15.797898  

    Final Occupation by Irrep:
              A 
    DOCC [    10 ]
    NA   [    10 ]
    NB   [    10 ]

  @DF-RKS Final Energy:  -152.86788050171126

   => Energetics <=

    Nuclear Repulsion Energy =             34.2515905686247990
    One-Electron Energy =                -277.8721037080750307
    Two-Electron Energy =                 109.3347214277912940
    DFT Exchange-Correlation Energy =     -18.5818800800523150
    Empirical Dispersion Energy =          -0.0002087100000000
    VV10 Nonlocal Energy =                  0.0000000000000000
    Total Energy =                       -152.8678805017112552

Computation Completed


Properties will be evaluated at   0.000000,   0.000000,   0.000000 [a0]

Properties computed using the SCF density matrix


 Multipole Moments:

 ------------------------------------------------------------------------------------
     Multipole            Electronic (a.u.)      Nuclear  (a.u.)        Total (a.u.)
 ------------------------------------------------------------------------------------

 L = 1.  Multiply by 2.5417464519 to convert [e a0] to [Debye]
 Dipole X            :       -138.2930228          138.7170183            0.4239955
 Dipole Y            :        -73.3250083           73.8631290            0.5381206
 Dipole Z            :         24.6035891          -23.9760136            0.6275754
 Magnitude           :                                                    0.9290839

 ------------------------------------------------------------------------------------

*** tstop() called on d-19-15-2 at Mon Sep 18 10:04:03 2023
Module time:
	user time   =      24.65 seconds =       0.41 minutes
	system time =       0.14 seconds =       0.00 minutes
	total time  =         26 seconds =       0.43 minutes
Total time:
	user time   =   45556.62 seconds =     759.28 minutes
	system time =   22541.14 seconds =     375.69 minutes
	total time  =      76539 seconds =    1275.65 minutes

    Psi4 stopped on: Monday, 18 September 2023 10:04AM
    Psi4 wall time for execution: 0:00:26.22


  //>>>>>>>>>>>>>>>>>>>>>>>>>>>>>>>>>>>//
  //          ManyBody Results         //
  //<<<<<<<<<<<<<<<<<<<<<<<<<<<<<<<<<<<//


   ==> N-Body: Counterpoise Corrected (CP) energies <==

        n-Body     Total Energy            Interaction Energy                          N-body Contribution to Interaction Energy
                   [Eh]                    [Eh]                  [kcal/mol]            [Eh]                  [kcal/mol]
             1  N/A                         0.000000000000        0.000000000000        0.000000000000        0.000000000000
  FULL/RTN   2  N/A                        -0.006120054349       -3.840392084243       -0.006120054349       -3.840392084243


