Scratch directory: /home/gridsan/kfisher/scratch/

  //>>>>>>>>>>>>>>>>>>>>>>>>>>>>>>>>>>>>>>>>//
  // ManyBody Setup: N-Body Levels [1, 2, 3]//
  //<<<<<<<<<<<<<<<<<<<<<<<<<<<<<<<<<<<<<<<<//

        Number of 1-body computations:     3
        Number of 2-body computations:     3
        Number of 3-body computations:     1

    -----------------------------------------------------------------------
          Psi4: An Open-Source Ab Initio Electronic Structure Package
                               Psi4 1.7 release

                         Git: Rev {HEAD} 6ce35a5 


    D. G. A. Smith, L. A. Burns, A. C. Simmonett, R. M. Parrish,
    M. C. Schieber, R. Galvelis, P. Kraus, H. Kruse, R. Di Remigio,
    A. Alenaizan, A. M. James, S. Lehtola, J. P. Misiewicz, M. Scheurer,
    R. A. Shaw, J. B. Schriber, Y. Xie, Z. L. Glick, D. A. Sirianni,
    J. S. O'Brien, J. M. Waldrop, A. Kumar, E. G. Hohenstein,
    B. P. Pritchard, B. R. Brooks, H. F. Schaefer III, A. Yu. Sokolov,
    K. Patkowski, A. E. DePrince III, U. Bozkaya, R. A. King,
    F. A. Evangelista, J. M. Turney, T. D. Crawford, C. D. Sherrill,
    J. Chem. Phys. 152(18) 184108 (2020). https://doi.org/10.1063/5.0006002

                            Additional Code Authors
    E. T. Seidl, C. L. Janssen, E. F. Valeev, M. L. Leininger,
    J. F. Gonthier, R. M. Richard, H. R. McAlexander, M. Saitow, X. Wang,
    P. Verma, M. H. Lechner, A. Jiang, S. Behnle, A. G. Heide,
    M. F. Herbst, and D. L. Poole

             Previous Authors, Complete List of Code Contributors,
                       and Citations for Specific Modules
    https://github.com/psi4/psi4/blob/master/codemeta.json
    https://github.com/psi4/psi4/graphs/contributors
    http://psicode.org/psi4manual/master/introduction.html#citing-psifour

    -----------------------------------------------------------------------


    Psi4 started on: Sunday, 17 September 2023 12:48PM

    Process ID: 258105
    Host:       d-19-15-2
    PSIDATADIR: /home/gridsan/kfisher/.conda/envs/p4env/share/psi4
    Memory:     18.6 GiB
    Threads:    1
    
  ==> Input QCSchema <==

--------------------------------------------------------------------------
{'driver': 'energy',
 'extras': {'psiapi': True, 'wfn_qcvars_only': True},
 'id': None,
 'keywords': {'D_CONVERGENCE': 1e-10, 'E_CONVERGENCE': 1e-10, 'function_kwargs': {}},
 'model': {'basis': 'aug-cc-pvtz', 'method': 'ccsd(t)'},
 'molecule': {'atom_labels': ['', '', '', '', '', '', '', '', ''],
              'atomic_numbers': [1, 1, 8, 1, 1, 8, 1, 1, 8],
              'fix_com': True,
              'fix_orientation': True,
              'fix_symmetry': 'c1',
              'fragment_charges': [0.0, 0.0, 0.0],
              'fragment_multiplicities': [1, 1, 1],
              'fragments': [[0, 1, 2], [3, 4, 5], [6, 7, 8]],
              'geometry': [3.520742357066175, 4.789301483318165, 2.2580148122537818, 0.8280181405492271,
                           4.531448523574795, 0.8920520016391582, 1.7613829945924417, 4.421313848791257,
                           2.5379526232801517, -2.793960870174372, 6.943699588551293, 6.435018990497602,
                           -0.9635801763919524, 5.30409863351117, 4.817622128458996, -2.3945346368859344,
                           5.212941079808273, 6.003976599780885, -6.711341793240494, 0.9374720037015459,
                           3.7080240804694213, -4.903110390401952, 3.236378920837551, 3.948734370768439,
                           -6.06090756618032, 2.3950129076710263, 2.755140906680497],
              'mass_numbers': [1, 1, 16, 1, 1, 16, 1, 1, 16],
              'masses': [1.00782503223, 1.00782503223, 15.99491461957, 1.00782503223, 1.00782503223, 15.99491461957,
                         1.00782503223, 1.00782503223, 15.99491461957],
              'molecular_charge': 0.0,
              'molecular_multiplicity': 1,
              'name': 'H6O3',
              'provenance': {'creator': 'QCElemental',
                             'routine': 'qcelemental.molparse.from_string',
                             'version': 'v0.25.1'},
              'real': [True, True, True, False, False, False, False, False, False],
              'schema_name': 'qcschema_molecule',
              'schema_version': 2,
              'symbols': ['H', 'H', 'O', 'H', 'H', 'O', 'H', 'H', 'O'],
              'validated': True},
 'protocols': {'stdout': True},
 'provenance': {'creator': 'QCElemental', 'routine': 'qcelemental.models.results', 'version': 'v0.25.1'},
 'schema_name': 'qcschema_input',
 'schema_version': 1}
--------------------------------------------------------------------------

Scratch directory: /home/gridsan/kfisher/scratch/

*** tstart() called on d-19-15-2
*** at Sun Sep 17 20:02:18 2023

   => Loading Basis Set <=

    Name: AUG-CC-PVTZ
    Role: ORBITAL
    Keyword: BASIS
    atoms 1-2, 4-5, 7-8 entry H          line    40 file /home/gridsan/kfisher/.conda/envs/p4env/share/psi4/basis/aug-cc-pvtz.gbs 
    atoms 3, 6, 9       entry O          line   331 file /home/gridsan/kfisher/.conda/envs/p4env/share/psi4/basis/aug-cc-pvtz.gbs 


         ---------------------------------------------------------
                                   SCF
               by Justin Turney, Rob Parrish, Andy Simmonett
                          and Daniel G. A. Smith
                              RHF Reference
                        1 Threads,  19073 MiB Core
         ---------------------------------------------------------

  ==> Geometry <==

    Molecular point group: c1
    Full point group: C1

    Geometry (in Bohr), charge = 0, multiplicity = 1:

       Center              X                  Y                   Z               Mass       
    ------------   -----------------  -----------------  -----------------  -----------------
         H            3.520742357066     4.789301483318     2.258014812254     1.007825032230
         H            0.828018140549     4.531448523575     0.892052001639     1.007825032230
         O            1.761382994592     4.421313848791     2.537952623280    15.994914619570
      Gh(H)          -2.793960870174     6.943699588551     6.435018990498     1.007825032230
      Gh(H)          -0.963580176392     5.304098633511     4.817622128459     1.007825032230
      Gh(O)          -2.394534636886     5.212941079808     6.003976599781    15.994914619570
      Gh(H)          -6.711341793240     0.937472003702     3.708024080469     1.007825032230
      Gh(H)          -4.903110390402     3.236378920838     3.948734370768     1.007825032230
      Gh(O)          -6.060907566180     2.395012907671     2.755140906680    15.994914619570

  Running in c1 symmetry.

  Rotational constants: A =      0.09945  B =      0.02849  C =      0.02256 [cm^-1]
  Rotational constants: A =   2981.32606  B =    853.96321  C =    676.39703 [MHz]
  Nuclear repulsion =    8.948665473044361

  Charge       = 0
  Multiplicity = 1
  Electrons    = 10
  Nalpha       = 5
  Nbeta        = 5

  ==> Algorithm <==

  SCF Algorithm Type is PK.
  DIIS enabled.
  MOM disabled.
  Fractional occupation disabled.
  Guess Type is SAD.
  Energy threshold   = 1.00e-10
  Density threshold  = 1.00e-10
  Integral threshold = 1.00e-12

  ==> Primary Basis <==

  Basis Set: AUG-CC-PVTZ
    Blend: AUG-CC-PVTZ
    Number of shells: 96
    Number of basis functions: 276
    Number of Cartesian functions: 315
    Spherical Harmonics?: true
    Max angular momentum: 3

  ==> Integral Setup <==

  Using in-core PK algorithm.
   Calculation information:
      Number of atoms:                   9
      Number of AO shells:              96
      Number of primitives:            156
      Number of atomic orbitals:       315
      Number of basis functions:       276

      Integral cutoff                 1.00e-12
      Number of threads:                 1

  Performing in-core PK
  Using 1461265302 doubles for integral storage.
  We computed 9401821 shell quartets total.
  Whereas there are 10841496 unique shell quartets.

  ==> DiskJK: Disk-Based J/K Matrices <==

    J tasked:                  Yes
    K tasked:                  Yes
    wK tasked:                  No
    Memory [MiB]:            14305
    Schwarz Cutoff:          1E-12

    OpenMP threads:              1

  Minimum eigenvalue in the overlap matrix is 1.8370893870E-04.
  Reciprocal condition number of the overlap matrix is 1.7682537371E-05.
    Using symmetric orthogonalization.

  ==> Pre-Iterations <==

  SCF Guess: Superposition of Atomic Densities via on-the-fly atomic UHF (no occupation information).

   -------------------------
    Irrep   Nso     Nmo    
   -------------------------
     A        276     276 
   -------------------------
    Total     276     276
   -------------------------

  ==> Iterations <==

                        Total Energy        Delta E     RMS |[F,P]|

   @RHF iter SAD:   -75.44329155181315   -7.54433e+01   0.00000e+00 
   @RHF iter   1:   -75.97145476758138   -5.28163e-01   1.69248e-03 DIIS/ADIIS
   @RHF iter   2:   -76.02312484666561   -5.16701e-02   1.17962e-03 DIIS/ADIIS
   @RHF iter   3:   -76.05612969312836   -3.30048e-02   8.06321e-05 DIIS
   @RHF iter   4:   -76.05656220765883   -4.32515e-04   2.03816e-05 DIIS
   @RHF iter   5:   -76.05659264736256   -3.04397e-05   4.74992e-06 DIIS
   @RHF iter   6:   -76.05659528364892   -2.63629e-06   1.07036e-06 DIIS
   @RHF iter   7:   -76.05659543008595   -1.46437e-07   1.99338e-07 DIIS
   @RHF iter   8:   -76.05659543450980   -4.42385e-09   3.43163e-08 DIIS
   @RHF iter   9:   -76.05659543461836   -1.08557e-10   9.07346e-09 DIIS
   @RHF iter  10:   -76.05659543462480   -6.43752e-12   1.29140e-09 DIIS
   @RHF iter  11:   -76.05659543462458    2.13163e-13   2.63904e-10 DIIS
   @RHF iter  12:   -76.05659543462463   -4.26326e-14   6.17632e-11 DIIS
  Energy and wave function converged.


  ==> Post-Iterations <==

    Orbital Energies [Eh]
    ---------------------

    Doubly Occupied:                                                      

       1A    -20.569146     2A     -1.337863     3A     -0.712676  
       4A     -0.570646     5A     -0.506791  

    Virtual:                                                              

       6A      0.023372     7A      0.037699     8A      0.047256  
       9A      0.052079    10A      0.075454    11A      0.076577  
      12A      0.113987    13A      0.130808    14A      0.138450  
      15A      0.148776    16A      0.158868    17A      0.162170  
      18A      0.167774    19A      0.180559    20A      0.200429  
      21A      0.211242    22A      0.212776    23A      0.226453  
      24A      0.253079    25A      0.280027    26A      0.280501  
      27A      0.294671    28A      0.299102    29A      0.311820  
      30A      0.326585    31A      0.334207    32A      0.361804  
      33A      0.363091    34A      0.371041    35A      0.374410  
      36A      0.379295    37A      0.395216    38A      0.405425  
      39A      0.425207    40A      0.434070    41A      0.444396  
      42A      0.458360    43A      0.465680    44A      0.474007  
      45A      0.479082    46A      0.538566    47A      0.571306  
      48A      0.622706    49A      0.646095    50A      0.684572  
      51A      0.693604    52A      0.716879    53A      0.729395  
      54A      0.762854    55A      0.771917    56A      0.775835  
      57A      0.789543    58A      0.796196    59A      0.810706  
      60A      0.822716    61A      0.834855    62A      0.843639  
      63A      0.851263    64A      0.866468    65A      0.875040  
      66A      0.885720    67A      0.899192    68A      0.905991  
      69A      0.916389    70A      0.923089    71A      0.929300  
      72A      0.943977    73A      0.949284    74A      0.962789  
      75A      0.968889    76A      0.993001    77A      1.003277  
      78A      1.011868    79A      1.016165    80A      1.035635  
      81A      1.042748    82A      1.054688    83A      1.078367  
      84A      1.098154    85A      1.107514    86A      1.133855  
      87A      1.139143    88A      1.149136    89A      1.157267  
      90A      1.192342    91A      1.199701    92A      1.223070  
      93A      1.236623    94A      1.255915    95A      1.271351  
      96A      1.300945    97A      1.309568    98A      1.346415  
      99A      1.383031   100A      1.395709   101A      1.426469  
     102A      1.461017   103A      1.479230   104A      1.546305  
     105A      1.563625   106A      1.587729   107A      1.607103  
     108A      1.634950   109A      1.661828   110A      1.698861  
     111A      1.718606   112A      1.720932   113A      1.731441  
     114A      1.775123   115A      1.794199   116A      1.814650  
     117A      1.833549   118A      1.846475   119A      1.887797  
     120A      1.897443   121A      1.913131   122A      1.945278  
     123A      2.010563   124A      2.021233   125A      2.091521  
     126A      2.132433   127A      2.182695   128A      2.268606  
     129A      2.321457   130A      2.400055   131A      2.437043  
     132A      2.461732   133A      2.466331   134A      2.485681  
     135A      2.509920   136A      2.530904   137A      2.551434  
     138A      2.570198   139A      2.582342   140A      2.588236  
     141A      2.607175   142A      2.646101   143A      2.673577  
     144A      2.698739   145A      2.719690   146A      2.738882  
     147A      2.757910   148A      2.764869   149A      2.785514  
     150A      2.803990   151A      2.829510   152A      2.882919  
     153A      2.895261   154A      2.936584   155A      2.975462  
     156A      3.016305   157A      3.033374   158A      3.130130  
     159A      3.179855   160A      3.187979   161A      3.256784  
     162A      3.325402   163A      3.384892   164A      3.459430  
     165A      3.464166   166A      3.479708   167A      3.525810  
     168A      3.542065   169A      3.615185   170A      3.656915  
     171A      3.692960   172A      3.848782   173A      3.887805  
     174A      3.921172   175A      4.086775   176A      4.193256  
     177A      4.235805   178A      4.297172   179A      4.371208  
     180A      4.402516   181A      4.430038   182A      4.452701  
     183A      4.466816   184A      4.505268   185A      4.510359  
     186A      4.576117   187A      4.583688   188A      4.590496  
     189A      4.617440   190A      4.640536   191A      4.652448  
     192A      4.709740   193A      4.746895   194A      4.777457  
     195A      4.803884   196A      4.840688   197A      4.891032  
     198A      4.929254   199A      4.969615   200A      5.037796  
     201A      5.044245   202A      5.085455   203A      5.117737  
     204A      5.166990   205A      5.257938   206A      5.286268  
     207A      5.311128   208A      5.343135   209A      5.419803  
     210A      5.444461   211A      5.480449   212A      5.539255  
     213A      5.571239   214A      5.589758   215A      5.690363  
     216A      5.752282   217A      5.836296   218A      5.851562  
     219A      5.915752   220A      6.151288   221A      6.189832  
     222A      6.352772   223A      6.392482   224A      6.559544  
     225A      6.582888   226A      6.608668   227A      6.719567  
     228A      6.859163   229A      6.927615   230A      6.992567  
     231A      7.079831   232A      7.138311   233A      7.297540  
     234A      7.331290   235A      7.383794   236A      7.420171  
     237A      7.454205   238A      7.681071   239A      7.709374  
     240A      7.760330   241A      7.852960   242A      7.871942  
     243A      7.922621   244A      7.944446   245A      8.019242  
     246A      8.122205   247A      8.170128   248A      8.221963  
     249A      8.262973   250A      8.355917   251A      8.692111  
     252A      8.709137   253A      8.832452   254A      8.879358  
     255A      8.955197   256A      9.645494   257A      9.835414  
     258A      9.851957   259A     10.032751   260A     10.087704  
     261A     10.158946   262A     10.334082   263A     10.351657  
     264A     11.115847   265A     11.209353   266A     11.696084  
     267A     11.887247   268A     11.955531   269A     12.374355  
     270A     13.502526   271A     13.627331   272A     13.980803  
     273A     14.053326   274A     15.564544   275A     64.533652  
     276A     66.646913  

    Final Occupation by Irrep:
              A 
    DOCC [     5 ]
    NA   [     5 ]
    NB   [     5 ]

  @RHF Final Energy:   -76.05659543462463

   => Energetics <=

    Nuclear Repulsion Energy =              8.9486654730443611
    One-Electron Energy =                -122.6162785426976143
    Two-Electron Energy =                  37.6110176350286309
    Total Energy =                        -76.0565954346246258

Computation Completed


Properties will be evaluated at   0.000000,   0.000000,   0.000000 [a0]

Properties computed using the SCF density matrix


 Multipole Moments:

 ------------------------------------------------------------------------------------
     Multipole            Electronic (a.u.)      Nuclear  (a.u.)        Total (a.u.)
 ------------------------------------------------------------------------------------

 L = 1.  Multiply by 2.5417464519 to convert [e a0] to [Debye]
 Dipole X            :        -18.1442453           18.4398245            0.2955792
 Dipole Y            :        -44.5231981           44.6912608            0.1680627
 Dipole Z            :        -24.1279034           23.4536878           -0.6742156
 Magnitude           :                                                    0.7551018

 ------------------------------------------------------------------------------------

*** tstop() called on d-19-15-2 at Sun Sep 17 20:03:44 2023
Module time:
	user time   =      80.75 seconds =       1.35 minutes
	system time =       5.02 seconds =       0.08 minutes
	total time  =         86 seconds =       1.43 minutes
Total time:
	user time   =   15753.52 seconds =     262.56 minutes
	system time =    7102.57 seconds =     118.38 minutes
	total time  =      26120 seconds =     435.33 minutes
 MINTS: Wrapper to libmints.
   by Justin Turney

   Calculation information:
      Number of threads:                 1
      Number of atoms:                   9
      Number of AO shells:              96
      Number of SO shells:              96
      Number of primitives:            156
      Number of atomic orbitals:       315
      Number of basis functions:       276

      Number of irreps:                  1
      Integral cutoff                 1.00e-12
      Number of functions per irrep: [ 276 ]

 OEINTS: Overlap, kinetic, potential, dipole, and quadrupole integrals
         stored in file 35.

      Computing two-electron integrals...done
      Computed 583584642 non-zero two-electron integrals.
        Stored in file 33.


*** tstart() called on d-19-15-2
*** at Sun Sep 17 20:04:41 2023


	Wfn Parameters:
	--------------------
	Wavefunction         = CCSD_T
	Number of irreps     = 1
	Number of MOs        = 276
	Number of active MOs = 276
	AO-Basis             = NONE
	Semicanonical        = false
	Reference            = RHF
	Print Level          = 1

	IRREP	# MOs	# FZDC	# DOCC	# SOCC	# VIRT	# FZVR
	-----	-----	------	------	------	------	------
	 A	   276	    0	    5	    0	    271	    0
	Transforming integrals...
	IWL integrals will be deleted.
	(OO|OO)...
	Presorting SO-basis two-electron integrals.
	Sorting File: SO Ints (nn|nn) nbuckets = 1
	Constructing frozen core operators
	Starting first half-transformation.
	Sorting half-transformed integrals.
	First half integral transformation complete.
	Starting second half-transformation.
	Two-electron integral transformation complete.
	(OO|OV)...
	Starting second half-transformation.
	Two-electron integral transformation complete.
	(OO|VV)...
	Starting second half-transformation.
	Two-electron integral transformation complete.
	(OV|OO)...
	Starting first half-transformation.
	Sorting half-transformed integrals.
	First half integral transformation complete.
	Starting second half-transformation.
	Two-electron integral transformation complete.
	(OV|OV)...
	Starting second half-transformation.
	Two-electron integral transformation complete.
	(OV|VV)...
	Starting second half-transformation.
	Two-electron integral transformation complete.
	(VV|OO)...
	Starting first half-transformation.
	Sorting half-transformed integrals.
	First half integral transformation complete.
	Starting second half-transformation.
	Two-electron integral transformation complete.
	(VV|OV)...
	Starting second half-transformation.
	Two-electron integral transformation complete.
	(VV|VV)...
	Starting second half-transformation.
	Two-electron integral transformation complete.
	Frozen core energy     =      0.00000000000000

	Size of irrep 0 of <ab|cd> integrals:   5393.580 (MW) /  43148.644 (MB)
	Total:                                  5393.580 (MW) /  43148.644 (MB)

	Size of irrep 0 of <ia|bc> integrals:     99.513 (MW) /    796.100 (MB)
	Total:                                    99.513 (MW) /    796.100 (MB)

	Size of irrep 0 of tijab amplitudes:       1.836 (MW) /     14.688 (MB)
	Total:                                     1.836 (MW) /     14.688 (MB)

	Nuclear Rep. energy          =      8.94866547304436
	SCF energy                   =    -76.05659543462463
	One-electron energy          =   -122.61627854525872
	Two-electron energy          =     37.61101763758960
	Reference energy             =    -76.05659543462477

*** tstop() called on d-19-15-2 at Sun Sep 17 20:18:22 2023
Module time:
	user time   =     529.34 seconds =       8.82 minutes
	system time =     269.32 seconds =       4.49 minutes
	total time  =        821 seconds =      13.68 minutes
Total time:
	user time   =   16325.98 seconds =     272.10 minutes
	system time =    7385.79 seconds =     123.10 minutes
	total time  =      26998 seconds =     449.97 minutes
            **************************
            *                        *
            *        CCENERGY        *
            *                        *
            **************************

    Nuclear Rep. energy (wfn)     =    8.948665473044361
    SCF energy          (wfn)     =  -76.056595434624626
    Reference energy    (file100) =  -76.056595434624768

    Input parameters:
    -----------------
    Wave function   =     CCSD_T
    Reference wfn   =     RHF
    Brueckner       =     No
    Memory (Mbytes) =     20000.0
    Maxiter         =     50
    R_Convergence   =     1.0e-07
    E_Convergence   =     1.0e-10
    Restart         =     Yes
    DIIS            =     Yes
    AO Basis        =     NONE
    ABCD            =     NEW
    Cache Level     =     2
    Cache Type      =     LOW
    Print Level     =     1
    Num. of threads =     1
    # Amps to Print =     10
    Print MP2 Amps? =     No
    Analyze T2 Amps =     No
    Print Pair Ener =     No
    Local CC        =     No
    SCS-MP2         =     False
    SCSN-MP2        =     False
    SCS-CCSD        =     False

MP2 correlation energy -0.2856776584772120
                Solving CC Amplitude Equations
                ------------------------------
  Iter             Energy              RMS        T1Diag      D1Diag    New D1Diag    D2Diag
  ----     ---------------------    ---------   ----------  ----------  ----------   --------
     0        -0.285677658477212    0.000e+00    0.000000    0.000000    0.000000    0.120827
     1        -0.283547536079972    3.651e-02    0.007813    0.017573    0.017573    0.123259
     2        -0.288769360592795    1.305e-02    0.007639    0.017306    0.017306    0.128191
     3        -0.290191045703562    5.136e-03    0.008878    0.020658    0.020658    0.130597
     4        -0.290055233707958    1.122e-03    0.009039    0.021129    0.021129    0.130840
     5        -0.290067514541572    4.234e-04    0.009129    0.021437    0.021437    0.130919
     6        -0.290075396218582    1.107e-04    0.009153    0.021524    0.021524    0.130921
     7        -0.290073403913154    3.971e-05    0.009158    0.021545    0.021545    0.130913
     8        -0.290072792405234    1.216e-05    0.009159    0.021551    0.021551    0.130912
     9        -0.290072962647407    4.760e-06    0.009160    0.021553    0.021553    0.130912
    10        -0.290072725214311    1.943e-06    0.009160    0.021553    0.021553    0.130912
    11        -0.290072733208217    6.675e-07    0.009160    0.021553    0.021553    0.130912
    12        -0.290072723495025    2.986e-07    0.009160    0.021553    0.021553    0.130912
    13        -0.290072719127815    9.909e-08    0.009160    0.021553    0.021553    0.130912
    14        -0.290072719267011    3.425e-08    0.009160    0.021553    0.021553    0.130912
    15        -0.290072719473862    1.252e-08    0.009160    0.021553    0.021553    0.130912
    16        -0.290072719406214    4.677e-09    0.009160    0.021553    0.021553    0.130912
    17        -0.290072719395509    1.646e-09    0.009160    0.021553    0.021553    0.130912

    Iterations converged.


    Largest TIA Amplitudes:
              4  12         0.0078534956
              4   6         0.0067522800
              4   8        -0.0064519235
              4   7         0.0049685811
              4  20         0.0046502925
              4  11         0.0043551776
              3  11         0.0041540344
              4  13         0.0040380110
              4  28         0.0039278062
              4  27        -0.0039275243

    Largest TIjAb Amplitudes:
      2   2  37  37        -0.0143189045
      2   2  42  42        -0.0112609569
      3   3  42  42        -0.0101611074
      2   2  13  37        -0.0081227598
      2   2  37  13        -0.0081227598
      2   2  37  42        -0.0074516604
      2   2  42  37        -0.0074516604
      2   2  44  44        -0.0069825986
      3   3  34  34        -0.0068032411
      2   2  36  37        -0.0067324648

    SCF energy       (wfn)                    =  -76.056595434624626
    Reference energy (file100)                =  -76.056595434624768

    Opposite-spin MP2 correlation energy      =   -0.216927172939008
    Same-spin MP2 correlation energy          =   -0.068750485538204
    Singles MP2 correlation energy            =   -0.000000000000000
    MP2 correlation energy                    =   -0.285677658477212
      * MP2 total energy                      =  -76.342273093101980

    Opposite-spin CCSD correlation energy     =   -0.229003153981752
    Same-spin CCSD correlation energy         =   -0.061069565413757
    Singles CCSD correlation energy           =    0.000000000000000
    CCSD correlation energy                   =   -0.290072719395509
      * CCSD total energy                     =  -76.346668154020279

            **************************
            *                        *
            *        CCTRIPLES       *
            *                        *
            **************************


    Wave function   =    CCSD_T
    Reference wfn   =      RHF

    Nuclear Rep. energy (wfn)                =    8.948665473044361
    SCF energy          (wfn)                =  -76.056595434624626
    Reference energy    (file100)            =  -76.056595434624768
    CCSD energy         (file100)            =   -0.290072719395509
    Total CCSD energy   (file100)            =  -76.346668154020279

    Number of ijk index combinations:               35
    Memory available in words               :      2500000000
    Approx. words needed per explicit thread:        79610044
    Number of threads for explicit ijk threading:    1

    MKL num_threads set to 1 for explicit threading.

    (T) energy                                =   -0.009031418541624
      * CCSD(T) total energy                  =  -76.355699572561903


    Psi4 stopped on: Sunday, 17 September 2023 08:29PM
    Psi4 wall time for execution: 0:26:52.96


    -----------------------------------------------------------------------
          Psi4: An Open-Source Ab Initio Electronic Structure Package
                               Psi4 1.7 release

                         Git: Rev {HEAD} 6ce35a5 


    D. G. A. Smith, L. A. Burns, A. C. Simmonett, R. M. Parrish,
    M. C. Schieber, R. Galvelis, P. Kraus, H. Kruse, R. Di Remigio,
    A. Alenaizan, A. M. James, S. Lehtola, J. P. Misiewicz, M. Scheurer,
    R. A. Shaw, J. B. Schriber, Y. Xie, Z. L. Glick, D. A. Sirianni,
    J. S. O'Brien, J. M. Waldrop, A. Kumar, E. G. Hohenstein,
    B. P. Pritchard, B. R. Brooks, H. F. Schaefer III, A. Yu. Sokolov,
    K. Patkowski, A. E. DePrince III, U. Bozkaya, R. A. King,
    F. A. Evangelista, J. M. Turney, T. D. Crawford, C. D. Sherrill,
    J. Chem. Phys. 152(18) 184108 (2020). https://doi.org/10.1063/5.0006002

                            Additional Code Authors
    E. T. Seidl, C. L. Janssen, E. F. Valeev, M. L. Leininger,
    J. F. Gonthier, R. M. Richard, H. R. McAlexander, M. Saitow, X. Wang,
    P. Verma, M. H. Lechner, A. Jiang, S. Behnle, A. G. Heide,
    M. F. Herbst, and D. L. Poole

             Previous Authors, Complete List of Code Contributors,
                       and Citations for Specific Modules
    https://github.com/psi4/psi4/blob/master/codemeta.json
    https://github.com/psi4/psi4/graphs/contributors
    http://psicode.org/psi4manual/master/introduction.html#citing-psifour

    -----------------------------------------------------------------------


    Psi4 started on: Sunday, 17 September 2023 12:48PM

    Process ID: 258105
    Host:       d-19-15-2
    PSIDATADIR: /home/gridsan/kfisher/.conda/envs/p4env/share/psi4
    Memory:     18.6 GiB
    Threads:    1
    
  ==> Input QCSchema <==

--------------------------------------------------------------------------
{'driver': 'energy',
 'extras': {'psiapi': True, 'wfn_qcvars_only': True},
 'id': None,
 'keywords': {'D_CONVERGENCE': 1e-10, 'E_CONVERGENCE': 1e-10, 'function_kwargs': {}},
 'model': {'basis': 'aug-cc-pvtz', 'method': 'ccsd(t)'},
 'molecule': {'atom_labels': ['', '', '', '', '', '', '', '', ''],
              'atomic_numbers': [1, 1, 8, 1, 1, 8, 1, 1, 8],
              'fix_com': True,
              'fix_orientation': True,
              'fix_symmetry': 'c1',
              'fragment_charges': [0.0, 0.0, 0.0],
              'fragment_multiplicities': [1, 1, 1],
              'fragments': [[0, 1, 2], [3, 4, 5], [6, 7, 8]],
              'geometry': [3.520742357066175, 4.789301483318165, 2.2580148122537818, 0.8280181405492271,
                           4.531448523574795, 0.8920520016391582, 1.7613829945924417, 4.421313848791257,
                           2.5379526232801517, -2.793960870174372, 6.943699588551293, 6.435018990497602,
                           -0.9635801763919524, 5.30409863351117, 4.817622128458996, -2.3945346368859344,
                           5.212941079808273, 6.003976599780885, -6.711341793240494, 0.9374720037015459,
                           3.7080240804694213, -4.903110390401952, 3.236378920837551, 3.948734370768439,
                           -6.06090756618032, 2.3950129076710263, 2.755140906680497],
              'mass_numbers': [1, 1, 16, 1, 1, 16, 1, 1, 16],
              'masses': [1.00782503223, 1.00782503223, 15.99491461957, 1.00782503223, 1.00782503223, 15.99491461957,
                         1.00782503223, 1.00782503223, 15.99491461957],
              'molecular_charge': 0.0,
              'molecular_multiplicity': 1,
              'name': 'H6O3',
              'provenance': {'creator': 'QCElemental',
                             'routine': 'qcelemental.molparse.from_string',
                             'version': 'v0.25.1'},
              'real': [False, False, False, True, True, True, False, False, False],
              'schema_name': 'qcschema_molecule',
              'schema_version': 2,
              'symbols': ['H', 'H', 'O', 'H', 'H', 'O', 'H', 'H', 'O'],
              'validated': True},
 'protocols': {'stdout': True},
 'provenance': {'creator': 'QCElemental', 'routine': 'qcelemental.models.results', 'version': 'v0.25.1'},
 'schema_name': 'qcschema_input',
 'schema_version': 1}
--------------------------------------------------------------------------

Scratch directory: /home/gridsan/kfisher/scratch/

*** tstart() called on d-19-15-2
*** at Sun Sep 17 20:29:14 2023

   => Loading Basis Set <=

    Name: AUG-CC-PVTZ
    Role: ORBITAL
    Keyword: BASIS
    atoms 1-2, 4-5, 7-8 entry H          line    40 file /home/gridsan/kfisher/.conda/envs/p4env/share/psi4/basis/aug-cc-pvtz.gbs 
    atoms 3, 6, 9       entry O          line   331 file /home/gridsan/kfisher/.conda/envs/p4env/share/psi4/basis/aug-cc-pvtz.gbs 


         ---------------------------------------------------------
                                   SCF
               by Justin Turney, Rob Parrish, Andy Simmonett
                          and Daniel G. A. Smith
                              RHF Reference
                        1 Threads,  19073 MiB Core
         ---------------------------------------------------------

  ==> Geometry <==

    Molecular point group: c1
    Full point group: C1

    Geometry (in Bohr), charge = 0, multiplicity = 1:

       Center              X                  Y                   Z               Mass       
    ------------   -----------------  -----------------  -----------------  -----------------
      Gh(H)           3.520742357066     4.789301483318     2.258014812254     1.007825032230
      Gh(H)           0.828018140549     4.531448523575     0.892052001639     1.007825032230
      Gh(O)           1.761382994592     4.421313848791     2.537952623280    15.994914619570
         H           -2.793960870174     6.943699588551     6.435018990498     1.007825032230
         H           -0.963580176392     5.304098633511     4.817622128459     1.007825032230
         O           -2.394534636886     5.212941079808     6.003976599781    15.994914619570
      Gh(H)          -6.711341793240     0.937472003702     3.708024080469     1.007825032230
      Gh(H)          -4.903110390402     3.236378920838     3.948734370768     1.007825032230
      Gh(O)          -6.060907566180     2.395012907671     2.755140906680    15.994914619570

  Running in c1 symmetry.

  Rotational constants: A =      0.09945  B =      0.02849  C =      0.02256 [cm^-1]
  Rotational constants: A =   2981.32606  B =    853.96321  C =    676.39703 [MHz]
  Nuclear repulsion =    9.015489086052298

  Charge       = 0
  Multiplicity = 1
  Electrons    = 10
  Nalpha       = 5
  Nbeta        = 5

  ==> Algorithm <==

  SCF Algorithm Type is PK.
  DIIS enabled.
  MOM disabled.
  Fractional occupation disabled.
  Guess Type is SAD.
  Energy threshold   = 1.00e-10
  Density threshold  = 1.00e-10
  Integral threshold = 1.00e-12

  ==> Primary Basis <==

  Basis Set: AUG-CC-PVTZ
    Blend: AUG-CC-PVTZ
    Number of shells: 96
    Number of basis functions: 276
    Number of Cartesian functions: 315
    Spherical Harmonics?: true
    Max angular momentum: 3

  ==> Integral Setup <==

  Using in-core PK algorithm.
   Calculation information:
      Number of atoms:                   9
      Number of AO shells:              96
      Number of primitives:            156
      Number of atomic orbitals:       315
      Number of basis functions:       276

      Integral cutoff                 1.00e-12
      Number of threads:                 1

  Performing in-core PK
  Using 1461265302 doubles for integral storage.
  We computed 9401821 shell quartets total.
  Whereas there are 10841496 unique shell quartets.

  ==> DiskJK: Disk-Based J/K Matrices <==

    J tasked:                  Yes
    K tasked:                  Yes
    wK tasked:                  No
    Memory [MiB]:            14305
    Schwarz Cutoff:          1E-12

    OpenMP threads:              1

  Minimum eigenvalue in the overlap matrix is 1.8370893870E-04.
  Reciprocal condition number of the overlap matrix is 1.7682537371E-05.
    Using symmetric orthogonalization.

  ==> Pre-Iterations <==

  SCF Guess: Superposition of Atomic Densities via on-the-fly atomic UHF (no occupation information).

   -------------------------
    Irrep   Nso     Nmo    
   -------------------------
     A        276     276 
   -------------------------
    Total     276     276
   -------------------------

  ==> Iterations <==

                        Total Energy        Delta E     RMS |[F,P]|

   @RHF iter SAD:   -75.45487358353222   -7.54549e+01   0.00000e+00 
   @RHF iter   1:   -75.97370133778853   -5.18828e-01   1.69275e-03 DIIS/ADIIS
   @RHF iter   2:   -76.02562865373146   -5.19273e-02   1.17411e-03 DIIS/ADIIS
   @RHF iter   3:   -76.05824761923385   -3.26190e-02   8.01363e-05 DIIS
   @RHF iter   4:   -76.05866352719740   -4.15908e-04   1.98656e-05 DIIS
   @RHF iter   5:   -76.05869172158732   -2.81944e-05   4.58753e-06 DIIS
   @RHF iter   6:   -76.05869410012926   -2.37854e-06   1.01502e-06 DIIS
   @RHF iter   7:   -76.05869422747155   -1.27342e-07   1.83580e-07 DIIS
   @RHF iter   8:   -76.05869423109920   -3.62765e-09   3.13480e-08 DIIS
   @RHF iter   9:   -76.05869423118489   -8.56915e-11   8.06510e-09 DIIS
   @RHF iter  10:   -76.05869423119056   -5.67013e-12   1.16126e-09 DIIS
   @RHF iter  11:   -76.05869423119063   -7.10543e-14   2.00304e-10 DIIS
   @RHF iter  12:   -76.05869423119083   -1.98952e-13   4.67944e-11 DIIS
  Energy and wave function converged.


  ==> Post-Iterations <==

    Orbital Energies [Eh]
    ---------------------

    Doubly Occupied:                                                      

       1A    -20.569696     2A     -1.343175     3A     -0.709920  
       4A     -0.578747     5A     -0.508439  

    Virtual:                                                              

       6A      0.020489     7A      0.040005     8A      0.043453  
       9A      0.053269    10A      0.070208    11A      0.078704  
      12A      0.108922    13A      0.119219    14A      0.138002  
      15A      0.144410    16A      0.158531    17A      0.164075  
      18A      0.167010    19A      0.175476    20A      0.193135  
      21A      0.206746    22A      0.220013    23A      0.238079  
      24A      0.259484    25A      0.268885    26A      0.283270  
      27A      0.294284    28A      0.304840    29A      0.314065  
      30A      0.328253    31A      0.339728    32A      0.345731  
      33A      0.356253    34A      0.362037    35A      0.368513  
      36A      0.374721    37A      0.385082    38A      0.406940  
      39A      0.417862    40A      0.419795    41A      0.425138  
      42A      0.433453    43A      0.456964    44A      0.457459  
      45A      0.492472    46A      0.551556    47A      0.577768  
      48A      0.611389    49A      0.666159    50A      0.678456  
      51A      0.694888    52A      0.712836    53A      0.742470  
      54A      0.749403    55A      0.760677    56A      0.777839  
      57A      0.784386    58A      0.800295    59A      0.812661  
      60A      0.814441    61A      0.828180    62A      0.834377  
      63A      0.842820    64A      0.858212    65A      0.866701  
      66A      0.869900    67A      0.888634    68A      0.904088  
      69A      0.909162    70A      0.915727    71A      0.933647  
      72A      0.937089    73A      0.955035    74A      0.960912  
      75A      0.968749    76A      0.989179    77A      1.002692  
      78A      1.020429    79A      1.027293    80A      1.032015  
      81A      1.035580    82A      1.044965    83A      1.075180  
      84A      1.085508    85A      1.106261    86A      1.112320  
      87A      1.132921    88A      1.143232    89A      1.169364  
      90A      1.184105    91A      1.193825    92A      1.209601  
      93A      1.233618    94A      1.248292    95A      1.267378  
      96A      1.286201    97A      1.297685    98A      1.308860  
      99A      1.389182   100A      1.411196   101A      1.436452  
     102A      1.449517   103A      1.479291   104A      1.500633  
     105A      1.558740   106A      1.567009   107A      1.574652  
     108A      1.646151   109A      1.665103   110A      1.689774  
     111A      1.713296   112A      1.731818   113A      1.735822  
     114A      1.754048   115A      1.791376   116A      1.805326  
     117A      1.812644   118A      1.842667   119A      1.866228  
     120A      1.877947   121A      1.910416   122A      1.948998  
     123A      1.963899   124A      1.989721   125A      2.078849  
     126A      2.106688   127A      2.174292   128A      2.335681  
     129A      2.386607   130A      2.448919   131A      2.458385  
     132A      2.468446   133A      2.484273   134A      2.486459  
     135A      2.505352   136A      2.514833   137A      2.538391  
     138A      2.547766   139A      2.559186   140A      2.564666  
     141A      2.603890   142A      2.609438   143A      2.659571  
     144A      2.686242   145A      2.697079   146A      2.712586  
     147A      2.729727   148A      2.741358   149A      2.798005  
     150A      2.813949   151A      2.841294   152A      2.900410  
     153A      2.945497   154A      2.966930   155A      2.971457  
     156A      3.001754   157A      3.044900   158A      3.087168  
     159A      3.161405   160A      3.198037   161A      3.206361  
     162A      3.234545   163A      3.273942   164A      3.348937  
     165A      3.364106   166A      3.420267   167A      3.455118  
     168A      3.487148   169A      3.592975   170A      3.625669  
     171A      3.687520   172A      3.811069   173A      3.881247  
     174A      4.062689   175A      4.115518   176A      4.251974  
     177A      4.299017   178A      4.330119   179A      4.370052  
     180A      4.400584   181A      4.442029   182A      4.457666  
     183A      4.483691   184A      4.510531   185A      4.530793  
     186A      4.534675   187A      4.590278   188A      4.600653  
     189A      4.606135   190A      4.644016   191A      4.685033  
     192A      4.693851   193A      4.722604   194A      4.819857  
     195A      4.834179   196A      4.907728   197A      4.926373  
     198A      4.927601   199A      4.947793   200A      4.990179  
     201A      5.016406   202A      5.065618   203A      5.098125  
     204A      5.158271   205A      5.203234   206A      5.217212  
     207A      5.309569   208A      5.313739   209A      5.418826  
     210A      5.448553   211A      5.459761   212A      5.515340  
     213A      5.561139   214A      5.580114   215A      5.642398  
     216A      5.745659   217A      5.782456   218A      5.853585  
     219A      5.893115   220A      6.115324   221A      6.223694  
     222A      6.285621   223A      6.362140   224A      6.496914  
     225A      6.593966   226A      6.601637   227A      6.678115  
     228A      6.859259   229A      6.965560   230A      7.018690  
     231A      7.030587   232A      7.224046   233A      7.325179  
     234A      7.393405   235A      7.410722   236A      7.420389  
     237A      7.527604   238A      7.711456   239A      7.723216  
     240A      7.746848   241A      7.822723   242A      7.828128  
     243A      7.974010   244A      7.994644   245A      8.045423  
     246A      8.070862   247A      8.153496   248A      8.179060  
     249A      8.271961   250A      8.276457   251A      8.667301  
     252A      8.732447   253A      8.743213   254A      8.855582  
     255A      8.915750   256A      9.666462   257A      9.792794  
     258A      9.865144   259A      9.919907   260A     10.004819  
     261A     10.100606   262A     10.197739   263A     10.343451  
     264A     11.004889   265A     11.135540   266A     11.649171  
     267A     11.710065   268A     11.979189   269A     12.085208  
     270A     13.402635   271A     13.504397   272A     13.864517  
     273A     13.991400   274A     16.415918   275A     64.341846  
     276A     65.091900  

    Final Occupation by Irrep:
              A 
    DOCC [     5 ]
    NA   [     5 ]
    NB   [     5 ]

  @RHF Final Energy:   -76.05869423119083

   => Energetics <=

    Nuclear Repulsion Energy =              9.0154890860522983
    One-Electron Energy =                -122.7284144940278026
    Two-Electron Energy =                  37.6542311767846769
    Total Energy =                        -76.0586942311908274

Computation Completed


Properties will be evaluated at   0.000000,   0.000000,   0.000000 [a0]

Properties computed using the SCF density matrix


 Multipole Moments:

 ------------------------------------------------------------------------------------
     Multipole            Electronic (a.u.)      Nuclear  (a.u.)        Total (a.u.)
 ------------------------------------------------------------------------------------

 L = 1.  Multiply by 2.5417464519 to convert [e a0] to [Debye]
 Dipole X            :         23.2722233          -22.9138181            0.3584052
 Dipole Y            :        -53.3139788           53.9513269            0.6373480
 Dipole Z            :        -59.5463243           59.2844539           -0.2618704
 Magnitude           :                                                    0.7766871

 ------------------------------------------------------------------------------------

*** tstop() called on d-19-15-2 at Sun Sep 17 20:30:42 2023
Module time:
	user time   =      76.60 seconds =       1.28 minutes
	system time =       2.82 seconds =       0.05 minutes
	total time  =         88 seconds =       1.47 minutes
Total time:
	user time   =   16685.31 seconds =     278.09 minutes
	system time =    7723.02 seconds =     128.72 minutes
	total time  =      27738 seconds =     462.30 minutes
 MINTS: Wrapper to libmints.
   by Justin Turney

   Calculation information:
      Number of threads:                 1
      Number of atoms:                   9
      Number of AO shells:              96
      Number of SO shells:              96
      Number of primitives:            156
      Number of atomic orbitals:       315
      Number of basis functions:       276

      Number of irreps:                  1
      Integral cutoff                 1.00e-12
      Number of functions per irrep: [ 276 ]

 OEINTS: Overlap, kinetic, potential, dipole, and quadrupole integrals
         stored in file 35.

      Computing two-electron integrals...done
      Computed 583584642 non-zero two-electron integrals.
        Stored in file 33.


*** tstart() called on d-19-15-2
*** at Sun Sep 17 20:31:49 2023


	Wfn Parameters:
	--------------------
	Wavefunction         = CCSD_T
	Number of irreps     = 1
	Number of MOs        = 276
	Number of active MOs = 276
	AO-Basis             = NONE
	Semicanonical        = false
	Reference            = RHF
	Print Level          = 1

	IRREP	# MOs	# FZDC	# DOCC	# SOCC	# VIRT	# FZVR
	-----	-----	------	------	------	------	------
	 A	   276	    0	    5	    0	    271	    0
	Transforming integrals...
	IWL integrals will be deleted.
	(OO|OO)...
	Presorting SO-basis two-electron integrals.
	Sorting File: SO Ints (nn|nn) nbuckets = 1
	Constructing frozen core operators
	Starting first half-transformation.
	Sorting half-transformed integrals.
	First half integral transformation complete.
	Starting second half-transformation.
	Two-electron integral transformation complete.
	(OO|OV)...
	Starting second half-transformation.
	Two-electron integral transformation complete.
	(OO|VV)...
	Starting second half-transformation.
	Two-electron integral transformation complete.
	(OV|OO)...
	Starting first half-transformation.
	Sorting half-transformed integrals.
	First half integral transformation complete.
	Starting second half-transformation.
	Two-electron integral transformation complete.
	(OV|OV)...
	Starting second half-transformation.
	Two-electron integral transformation complete.
	(OV|VV)...
	Starting second half-transformation.
	Two-electron integral transformation complete.
	(VV|OO)...
	Starting first half-transformation.
	Sorting half-transformed integrals.
	First half integral transformation complete.
	Starting second half-transformation.
	Two-electron integral transformation complete.
	(VV|OV)...
	Starting second half-transformation.
	Two-electron integral transformation complete.
	(VV|VV)...
	Starting second half-transformation.
	Two-electron integral transformation complete.
	Frozen core energy     =      0.00000000000000

	Size of irrep 0 of <ab|cd> integrals:   5393.580 (MW) /  43148.644 (MB)
	Total:                                  5393.580 (MW) /  43148.644 (MB)

	Size of irrep 0 of <ia|bc> integrals:     99.513 (MW) /    796.100 (MB)
	Total:                                    99.513 (MW) /    796.100 (MB)

	Size of irrep 0 of tijab amplitudes:       1.836 (MW) /     14.688 (MB)
	Total:                                     1.836 (MW) /     14.688 (MB)

	Nuclear Rep. energy          =      9.01548908605230
	SCF energy                   =    -76.05869423119083
	One-electron energy          =   -122.72841449991060
	Two-electron energy          =     37.65423118266768
	Reference energy             =    -76.05869423119063

*** tstop() called on d-19-15-2 at Sun Sep 17 20:49:24 2023
Module time:
	user time   =     515.03 seconds =       8.58 minutes
	system time =     323.90 seconds =       5.40 minutes
	total time  =       1055 seconds =      17.58 minutes
Total time:
	user time   =   17243.39 seconds =     287.39 minutes
	system time =    8062.51 seconds =     134.38 minutes
	total time  =      28860 seconds =     481.00 minutes
            **************************
            *                        *
            *        CCENERGY        *
            *                        *
            **************************

    Nuclear Rep. energy (wfn)     =    9.015489086052298
    SCF energy          (wfn)     =  -76.058694231190827
    Reference energy    (file100) =  -76.058694231190628

    Input parameters:
    -----------------
    Wave function   =     CCSD_T
    Reference wfn   =     RHF
    Brueckner       =     No
    Memory (Mbytes) =     20000.0
    Maxiter         =     50
    R_Convergence   =     1.0e-07
    E_Convergence   =     1.0e-10
    Restart         =     Yes
    DIIS            =     Yes
    AO Basis        =     NONE
    ABCD            =     NEW
    Cache Level     =     2
    Cache Type      =     LOW
    Print Level     =     1
    Num. of threads =     1
    # Amps to Print =     10
    Print MP2 Amps? =     No
    Analyze T2 Amps =     No
    Print Pair Ener =     No
    Local CC        =     No
    SCS-MP2         =     False
    SCSN-MP2        =     False
    SCS-CCSD        =     False

MP2 correlation energy -0.2859587831317748
                Solving CC Amplitude Equations
                ------------------------------
  Iter             Energy              RMS        T1Diag      D1Diag    New D1Diag    D2Diag
  ----     ---------------------    ---------   ----------  ----------  ----------   --------
     0        -0.285958783131775    0.000e+00    0.000000    0.000000    0.000000    0.119696
     1        -0.283941815240713    3.621e-02    0.007749    0.017470    0.017470    0.122077
     2        -0.289116774533712    1.290e-02    0.007583    0.017235    0.017235    0.126790
     3        -0.290515327342802    5.061e-03    0.008802    0.020549    0.020549    0.129068
     4        -0.290385024240495    1.116e-03    0.008963    0.021021    0.021021    0.129282
     5        -0.290394641423258    4.238e-04    0.009051    0.021325    0.021325    0.129346
     6        -0.290402926261779    1.153e-04    0.009075    0.021414    0.021414    0.129347
     7        -0.290401311194741    4.211e-05    0.009080    0.021439    0.021439    0.129339
     8        -0.290400539691455    1.290e-05    0.009082    0.021445    0.021445    0.129337
     9        -0.290400660114653    4.751e-06    0.009083    0.021448    0.021448    0.129337
    10        -0.290400449921828    1.732e-06    0.009083    0.021448    0.021448    0.129336
    11        -0.290400438042651    5.927e-07    0.009083    0.021448    0.021448    0.129336
    12        -0.290400427787286    2.569e-07    0.009083    0.021448    0.021448    0.129336
    13        -0.290400422981978    9.029e-08    0.009083    0.021448    0.021448    0.129336
    14        -0.290400422876016    3.184e-08    0.009083    0.021448    0.021448    0.129336
    15        -0.290400423123995    1.128e-08    0.009083    0.021448    0.021448    0.129336
    16        -0.290400423083302    4.021e-09    0.009083    0.021448    0.021448    0.129336
    17        -0.290400423077132    1.484e-09    0.009083    0.021448    0.021448    0.129336

    Iterations converged.


    Largest TIA Amplitudes:
              4  12         0.0087775236
              4  16        -0.0068696954
              4  39         0.0049717102
              2 120        -0.0045492984
              4  11         0.0045411492
              4  40         0.0044896299
              4  31        -0.0043580154
              3   6        -0.0043364190
              4   6        -0.0043126125
              4  30         0.0040969710

    Largest TIjAb Amplitudes:
      2   2  42  42        -0.0145299948
      2   2  37  37        -0.0143801674
      3   3  42  42        -0.0122214629
      2   2  37  42         0.0083374531
      2   2  42  37         0.0083374531
      2   2  14  37         0.0075805225
      2   2  37  14         0.0075805225
      3   3  69  69        -0.0068142020
      0   0 268 268        -0.0066935770
      2   2  19  37        -0.0062752710

    SCF energy       (wfn)                    =  -76.058694231190827
    Reference energy (file100)                =  -76.058694231190628

    Opposite-spin MP2 correlation energy      =   -0.217228849386313
    Same-spin MP2 correlation energy          =   -0.068729933745462
    Singles MP2 correlation energy            =   -0.000000000000000
    MP2 correlation energy                    =   -0.285958783131775
      * MP2 total energy                      =  -76.344653014322404

    Opposite-spin CCSD correlation energy     =   -0.229286672513218
    Same-spin CCSD correlation energy         =   -0.061113750563915
    Singles CCSD correlation energy           =    0.000000000000000
    CCSD correlation energy                   =   -0.290400423077132
      * CCSD total energy                     =  -76.349094654267759

            **************************
            *                        *
            *        CCTRIPLES       *
            *                        *
            **************************


    Wave function   =    CCSD_T
    Reference wfn   =      RHF

    Nuclear Rep. energy (wfn)                =    9.015489086052298
    SCF energy          (wfn)                =  -76.058694231190827
    Reference energy    (file100)            =  -76.058694231190628
    CCSD energy         (file100)            =   -0.290400423077132
    Total CCSD energy   (file100)            =  -76.349094654267759

    Number of ijk index combinations:               35
    Memory available in words               :      2500000000
    Approx. words needed per explicit thread:        79610044
    Number of threads for explicit ijk threading:    1

    MKL num_threads set to 1 for explicit threading.

    (T) energy                                =   -0.008992427549852
      * CCSD(T) total energy                  =  -76.358087081817615


    Psi4 stopped on: Sunday, 17 September 2023 09:03PM
    Psi4 wall time for execution: 0:34:17.41


    -----------------------------------------------------------------------
          Psi4: An Open-Source Ab Initio Electronic Structure Package
                               Psi4 1.7 release

                         Git: Rev {HEAD} 6ce35a5 


    D. G. A. Smith, L. A. Burns, A. C. Simmonett, R. M. Parrish,
    M. C. Schieber, R. Galvelis, P. Kraus, H. Kruse, R. Di Remigio,
    A. Alenaizan, A. M. James, S. Lehtola, J. P. Misiewicz, M. Scheurer,
    R. A. Shaw, J. B. Schriber, Y. Xie, Z. L. Glick, D. A. Sirianni,
    J. S. O'Brien, J. M. Waldrop, A. Kumar, E. G. Hohenstein,
    B. P. Pritchard, B. R. Brooks, H. F. Schaefer III, A. Yu. Sokolov,
    K. Patkowski, A. E. DePrince III, U. Bozkaya, R. A. King,
    F. A. Evangelista, J. M. Turney, T. D. Crawford, C. D. Sherrill,
    J. Chem. Phys. 152(18) 184108 (2020). https://doi.org/10.1063/5.0006002

                            Additional Code Authors
    E. T. Seidl, C. L. Janssen, E. F. Valeev, M. L. Leininger,
    J. F. Gonthier, R. M. Richard, H. R. McAlexander, M. Saitow, X. Wang,
    P. Verma, M. H. Lechner, A. Jiang, S. Behnle, A. G. Heide,
    M. F. Herbst, and D. L. Poole

             Previous Authors, Complete List of Code Contributors,
                       and Citations for Specific Modules
    https://github.com/psi4/psi4/blob/master/codemeta.json
    https://github.com/psi4/psi4/graphs/contributors
    http://psicode.org/psi4manual/master/introduction.html#citing-psifour

    -----------------------------------------------------------------------


    Psi4 started on: Sunday, 17 September 2023 12:48PM

    Process ID: 258105
    Host:       d-19-15-2
    PSIDATADIR: /home/gridsan/kfisher/.conda/envs/p4env/share/psi4
    Memory:     18.6 GiB
    Threads:    1
    
  ==> Input QCSchema <==

--------------------------------------------------------------------------
{'driver': 'energy',
 'extras': {'psiapi': True, 'wfn_qcvars_only': True},
 'id': None,
 'keywords': {'D_CONVERGENCE': 1e-10, 'E_CONVERGENCE': 1e-10, 'function_kwargs': {}},
 'model': {'basis': 'aug-cc-pvtz', 'method': 'ccsd(t)'},
 'molecule': {'atom_labels': ['', '', '', '', '', '', '', '', ''],
              'atomic_numbers': [1, 1, 8, 1, 1, 8, 1, 1, 8],
              'fix_com': True,
              'fix_orientation': True,
              'fix_symmetry': 'c1',
              'fragment_charges': [0.0, 0.0, 0.0],
              'fragment_multiplicities': [1, 1, 1],
              'fragments': [[0, 1, 2], [3, 4, 5], [6, 7, 8]],
              'geometry': [3.520742357066175, 4.789301483318165, 2.2580148122537818, 0.8280181405492271,
                           4.531448523574795, 0.8920520016391582, 1.7613829945924417, 4.421313848791257,
                           2.5379526232801517, -2.793960870174372, 6.943699588551293, 6.435018990497602,
                           -0.9635801763919524, 5.30409863351117, 4.817622128458996, -2.3945346368859344,
                           5.212941079808273, 6.003976599780885, -6.711341793240494, 0.9374720037015459,
                           3.7080240804694213, -4.903110390401952, 3.236378920837551, 3.948734370768439,
                           -6.06090756618032, 2.3950129076710263, 2.755140906680497],
              'mass_numbers': [1, 1, 16, 1, 1, 16, 1, 1, 16],
              'masses': [1.00782503223, 1.00782503223, 15.99491461957, 1.00782503223, 1.00782503223, 15.99491461957,
                         1.00782503223, 1.00782503223, 15.99491461957],
              'molecular_charge': 0.0,
              'molecular_multiplicity': 1,
              'name': 'H6O3',
              'provenance': {'creator': 'QCElemental',
                             'routine': 'qcelemental.molparse.from_string',
                             'version': 'v0.25.1'},
              'real': [False, False, False, True, True, True, True, True, True],
              'schema_name': 'qcschema_molecule',
              'schema_version': 2,
              'symbols': ['H', 'H', 'O', 'H', 'H', 'O', 'H', 'H', 'O'],
              'validated': True},
 'protocols': {'stdout': True},
 'provenance': {'creator': 'QCElemental', 'routine': 'qcelemental.models.results', 'version': 'v0.25.1'},
 'schema_name': 'qcschema_input',
 'schema_version': 1}
--------------------------------------------------------------------------

Scratch directory: /home/gridsan/kfisher/scratch/

*** tstart() called on d-19-15-2
*** at Sun Sep 17 21:03:29 2023

   => Loading Basis Set <=

    Name: AUG-CC-PVTZ
    Role: ORBITAL
    Keyword: BASIS
    atoms 1-2, 4-5, 7-8 entry H          line    40 file /home/gridsan/kfisher/.conda/envs/p4env/share/psi4/basis/aug-cc-pvtz.gbs 
    atoms 3, 6, 9       entry O          line   331 file /home/gridsan/kfisher/.conda/envs/p4env/share/psi4/basis/aug-cc-pvtz.gbs 


         ---------------------------------------------------------
                                   SCF
               by Justin Turney, Rob Parrish, Andy Simmonett
                          and Daniel G. A. Smith
                              RHF Reference
                        1 Threads,  19073 MiB Core
         ---------------------------------------------------------

  ==> Geometry <==

    Molecular point group: c1
    Full point group: C1

    Geometry (in Bohr), charge = 0, multiplicity = 1:

       Center              X                  Y                   Z               Mass       
    ------------   -----------------  -----------------  -----------------  -----------------
      Gh(H)           3.520742357066     4.789301483318     2.258014812254     1.007825032230
      Gh(H)           0.828018140549     4.531448523575     0.892052001639     1.007825032230
      Gh(O)           1.761382994592     4.421313848791     2.537952623280    15.994914619570
         H           -2.793960870174     6.943699588551     6.435018990498     1.007825032230
         H           -0.963580176392     5.304098633511     4.817622128459     1.007825032230
         O           -2.394534636886     5.212941079808     6.003976599781    15.994914619570
         H           -6.711341793240     0.937472003702     3.708024080469     1.007825032230
         H           -4.903110390402     3.236378920838     3.948734370768     1.007825032230
         O           -6.060907566180     2.395012907671     2.755140906680    15.994914619570

  Running in c1 symmetry.

  Rotational constants: A =      0.09945  B =      0.02849  C =      0.02256 [cm^-1]
  Rotational constants: A =   2981.32606  B =    853.96321  C =    676.39703 [MHz]
  Nuclear repulsion =   35.785698426447809

  Charge       = 0
  Multiplicity = 1
  Electrons    = 20
  Nalpha       = 10
  Nbeta        = 10

  ==> Algorithm <==

  SCF Algorithm Type is PK.
  DIIS enabled.
  MOM disabled.
  Fractional occupation disabled.
  Guess Type is SAD.
  Energy threshold   = 1.00e-10
  Density threshold  = 1.00e-10
  Integral threshold = 1.00e-12

  ==> Primary Basis <==

  Basis Set: AUG-CC-PVTZ
    Blend: AUG-CC-PVTZ
    Number of shells: 96
    Number of basis functions: 276
    Number of Cartesian functions: 315
    Spherical Harmonics?: true
    Max angular momentum: 3

  ==> Integral Setup <==

  Using in-core PK algorithm.
   Calculation information:
      Number of atoms:                   9
      Number of AO shells:              96
      Number of primitives:            156
      Number of atomic orbitals:       315
      Number of basis functions:       276

      Integral cutoff                 1.00e-12
      Number of threads:                 1

  Performing in-core PK
  Using 1461265302 doubles for integral storage.
  We computed 9401821 shell quartets total.
  Whereas there are 10841496 unique shell quartets.

  ==> DiskJK: Disk-Based J/K Matrices <==

    J tasked:                  Yes
    K tasked:                  Yes
    wK tasked:                  No
    Memory [MiB]:            14305
    Schwarz Cutoff:          1E-12

    OpenMP threads:              1

  Minimum eigenvalue in the overlap matrix is 1.8370893870E-04.
  Reciprocal condition number of the overlap matrix is 1.7682537371E-05.
    Using symmetric orthogonalization.

  ==> Pre-Iterations <==

  SCF Guess: Superposition of Atomic Densities via on-the-fly atomic UHF (no occupation information).

   -------------------------
    Irrep   Nso     Nmo    
   -------------------------
     A        276     276 
   -------------------------
    Total     276     276
   -------------------------

  ==> Iterations <==

                        Total Energy        Delta E     RMS |[F,P]|

   @RHF iter SAD:  -150.97639828291165   -1.50976e+02   0.00000e+00 
   @RHF iter   1:  -151.96470495459434   -9.88307e-01   2.30606e-03 DIIS/ADIIS
   @RHF iter   2:  -152.06505659440364   -1.00352e-01   1.54857e-03 DIIS/ADIIS
   @RHF iter   3:  -152.12120805664176   -5.61515e-02   1.14490e-04 DIIS/ADIIS
   @RHF iter   4:  -152.12207318490968   -8.65128e-04   2.85754e-05 DIIS
   @RHF iter   5:  -152.12212972549997   -5.65406e-05   9.41415e-06 DIIS
   @RHF iter   6:  -152.12213546091536   -5.73542e-06   4.23402e-06 DIIS
   @RHF iter   7:  -152.12213638830553   -9.27390e-07   8.26861e-07 DIIS
   @RHF iter   8:  -152.12213646231942   -7.40139e-08   1.39966e-07 DIIS
   @RHF iter   9:  -152.12213646428103   -1.96161e-09   2.27414e-08 DIIS
   @RHF iter  10:  -152.12213646432809   -4.70664e-11   6.23778e-09 DIIS
   @RHF iter  11:  -152.12213646433165   -3.55271e-12   1.21333e-09 DIIS
   @RHF iter  12:  -152.12213646433099    6.53699e-13   2.62762e-10 DIIS
   @RHF iter  13:  -152.12213646433105   -5.68434e-14   1.03465e-10 DIIS
   @RHF iter  14:  -152.12213646433150   -4.54747e-13   2.13002e-11 DIIS
  Energy and wave function converged.


  ==> Post-Iterations <==

    Orbital Energies [Eh]
    ---------------------

    Doubly Occupied:                                                      

       1A    -20.593726     2A    -20.542548     3A     -1.369745  
       4A     -1.313228     5A     -0.735037     6A     -0.681550  
       7A     -0.607664     8A     -0.557494     9A     -0.529153  
      10A     -0.481771  

    Virtual:                                                              

      11A      0.018462    12A      0.038090    13A      0.045491  
      14A      0.054666    15A      0.068190    16A      0.082637  
      17A      0.110385    18A      0.119203    19A      0.141887  
      20A      0.150231    21A      0.159896    22A      0.171253  
      23A      0.182475    24A      0.187762    25A      0.198949  
      26A      0.214644    27A      0.219439    28A      0.237869  
      29A      0.257524    30A      0.260537    31A      0.277828  
      32A      0.291435    33A      0.296221    34A      0.307409  
      35A      0.323161    36A      0.334179    37A      0.342409  
      38A      0.353201    39A      0.362286    40A      0.371489  
      41A      0.381959    42A      0.393988    43A      0.408807  
      44A      0.421120    45A      0.424149    46A      0.427469  
      47A      0.440453    48A      0.448652    49A      0.473149  
      50A      0.480474    51A      0.560411    52A      0.576139  
      53A      0.602056    54A      0.631426    55A      0.674393  
      56A      0.703512    57A      0.717623    58A      0.723025  
      59A      0.736592    60A      0.754509    61A      0.760896  
      62A      0.767226    63A      0.781911    64A      0.789048  
      65A      0.801806    66A      0.820764    67A      0.830520  
      68A      0.840574    69A      0.860001    70A      0.869667  
      71A      0.873743    72A      0.884303    73A      0.902235  
      74A      0.909600    75A      0.930771    76A      0.931741  
      77A      0.948662    78A      0.957761    79A      0.969780  
      80A      0.977143    81A      0.984702    82A      0.994506  
      83A      1.001203    84A      1.019271    85A      1.022531  
      86A      1.029806    87A      1.047425    88A      1.059339  
      89A      1.089593    90A      1.096836    91A      1.114713  
      92A      1.118185    93A      1.152279    94A      1.171928  
      95A      1.178372    96A      1.196134    97A      1.201490  
      98A      1.226937    99A      1.247086   100A      1.252982  
     101A      1.268362   102A      1.278765   103A      1.304027  
     104A      1.341174   105A      1.382567   106A      1.419473  
     107A      1.441140   108A      1.449675   109A      1.480733  
     110A      1.521490   111A      1.535292   112A      1.559381  
     113A      1.571483   114A      1.623407   115A      1.652072  
     116A      1.661776   117A      1.684888   118A      1.711497  
     119A      1.735578   120A      1.752306   121A      1.788737  
     122A      1.818758   123A      1.851497   124A      1.861846  
     125A      1.930031   126A      1.951111   127A      1.959711  
     128A      1.983807   129A      2.001113   130A      2.076610  
     131A      2.123335   132A      2.258936   133A      2.306935  
     134A      2.324057   135A      2.361947   136A      2.415471  
     137A      2.443372   138A      2.450256   139A      2.466941  
     140A      2.471275   141A      2.485696   142A      2.499486  
     143A      2.509506   144A      2.515793   145A      2.522811  
     146A      2.551036   147A      2.566662   148A      2.607907  
     149A      2.624581   150A      2.681462   151A      2.696392  
     152A      2.725923   153A      2.746307   154A      2.776761  
     155A      2.788714   156A      2.808633   157A      2.853467  
     158A      2.884190   159A      2.909656   160A      2.920203  
     161A      2.941461   162A      2.952692   163A      2.994210  
     164A      3.022806   165A      3.025051   166A      3.074817  
     167A      3.158696   168A      3.230845   169A      3.269324  
     170A      3.359975   171A      3.413774   172A      3.597745  
     173A      3.678481   174A      3.724917   175A      3.812682  
     176A      4.027433   177A      4.036163   178A      4.073096  
     179A      4.090630   180A      4.208085   181A      4.223030  
     182A      4.227911   183A      4.260072   184A      4.278187  
     185A      4.324009   186A      4.338891   187A      4.370148  
     188A      4.405844   189A      4.423629   190A      4.444114  
     191A      4.459360   192A      4.481901   193A      4.493767  
     194A      4.533556   195A      4.547827   196A      4.602162  
     197A      4.611824   198A      4.671886   199A      4.702193  
     200A      4.715487   201A      4.776094   202A      4.806645  
     203A      4.840203   204A      4.927382   205A      4.966905  
     206A      4.975605   207A      5.015276   208A      5.061522  
     209A      5.078759   210A      5.129414   211A      5.167954  
     212A      5.187149   213A      5.208537   214A      5.276235  
     215A      5.328120   216A      5.337485   217A      5.403251  
     218A      5.455538   219A      5.501141   220A      5.510647  
     221A      5.607677   222A      5.700118   223A      5.742304  
     224A      5.770678   225A      5.888192   226A      6.199212  
     227A      6.222557   228A      6.283870   229A      6.408046  
     230A      6.553166   231A      6.569964   232A      6.669350  
     233A      6.779649   234A      6.815341   235A      6.912189  
     236A      6.953321   237A      7.013506   238A      7.123725  
     239A      7.196044   240A      7.271432   241A      7.297015  
     242A      7.311544   243A      7.315471   244A      7.359178  
     245A      7.388570   246A      7.392821   247A      7.425118  
     248A      7.504162   249A      7.533077   250A      7.635167  
     251A      7.719990   252A      7.739893   253A      7.813041  
     254A      7.942685   255A      7.960125   256A      7.974004  
     257A      8.021595   258A      8.062917   259A      8.175082  
     260A      8.271092   261A      8.663145   262A      8.728845  
     263A      8.772947   264A      8.867198   265A      9.788574  
     266A      9.915002   267A     10.000074   268A     10.192646  
     269A     11.000691   270A     11.645046   271A     12.079547  
     272A     13.398393   273A     13.859238   274A     15.670822  
     275A     16.619684   276A     64.341775  

    Final Occupation by Irrep:
              A 
    DOCC [    10 ]
    NA   [    10 ]
    NB   [    10 ]

  @RHF Final Energy:  -152.12213646433150

   => Energetics <=

    Nuclear Repulsion Energy =             35.7856984264478086
    One-Electron Energy =                -280.9918356071498238
    Two-Electron Energy =                  93.0840007163705110
    Total Energy =                       -152.1221364643315042

Computation Completed


Properties will be evaluated at   0.000000,   0.000000,   0.000000 [a0]

Properties computed using the SCF density matrix


 Multipole Moments:

 ------------------------------------------------------------------------------------
     Multipole            Electronic (a.u.)      Nuclear  (a.u.)        Total (a.u.)
 ------------------------------------------------------------------------------------

 L = 1.  Multiply by 2.5417464519 to convert [e a0] to [Debye]
 Dipole X            :         83.6852679          -83.0155309            0.6697371
 Dipole Y            :        -76.7357583           77.2852810            0.5495227
 Dipole Z            :        -88.3965431           88.9823396            0.5857965
 Magnitude           :                                                    1.0457918

 ------------------------------------------------------------------------------------

*** tstop() called on d-19-15-2 at Sun Sep 17 21:05:28 2023
Module time:
	user time   =      89.46 seconds =       1.49 minutes
	system time =       7.75 seconds =       0.13 minutes
	total time  =        119 seconds =       1.98 minutes
Total time:
	user time   =   17631.59 seconds =     293.86 minutes
	system time =    8439.27 seconds =     140.65 minutes
	total time  =      29824 seconds =     497.07 minutes
 MINTS: Wrapper to libmints.
   by Justin Turney

   Calculation information:
      Number of threads:                 1
      Number of atoms:                   9
      Number of AO shells:              96
      Number of SO shells:              96
      Number of primitives:            156
      Number of atomic orbitals:       315
      Number of basis functions:       276

      Number of irreps:                  1
      Integral cutoff                 1.00e-12
      Number of functions per irrep: [ 276 ]

 OEINTS: Overlap, kinetic, potential, dipole, and quadrupole integrals
         stored in file 35.

      Computing two-electron integrals...done
      Computed 583584642 non-zero two-electron integrals.
        Stored in file 33.


*** tstart() called on d-19-15-2
*** at Sun Sep 17 21:06:34 2023


	Wfn Parameters:
	--------------------
	Wavefunction         = CCSD_T
	Number of irreps     = 1
	Number of MOs        = 276
	Number of active MOs = 276
	AO-Basis             = NONE
	Semicanonical        = false
	Reference            = RHF
	Print Level          = 1

	IRREP	# MOs	# FZDC	# DOCC	# SOCC	# VIRT	# FZVR
	-----	-----	------	------	------	------	------
	 A	   276	    0	    10	    0	    266	    0
	Transforming integrals...
	IWL integrals will be deleted.
	(OO|OO)...
	Presorting SO-basis two-electron integrals.
	Sorting File: SO Ints (nn|nn) nbuckets = 1
	Constructing frozen core operators
	Starting first half-transformation.
	Sorting half-transformed integrals.
	First half integral transformation complete.
	Starting second half-transformation.
	Two-electron integral transformation complete.
	(OO|OV)...
	Starting second half-transformation.
	Two-electron integral transformation complete.
	(OO|VV)...
	Starting second half-transformation.
	Two-electron integral transformation complete.
	(OV|OO)...
	Starting first half-transformation.
	Sorting half-transformed integrals.
	First half integral transformation complete.
	Starting second half-transformation.
	Two-electron integral transformation complete.
	(OV|OV)...
	Starting second half-transformation.
	Two-electron integral transformation complete.
	(OV|VV)...
	Starting second half-transformation.
	Two-electron integral transformation complete.
	(VV|OO)...
	Starting first half-transformation.
	Sorting half-transformed integrals.
	First half integral transformation complete.
	Starting second half-transformation.
	Two-electron integral transformation complete.
	(VV|OV)...
	Starting second half-transformation.
	Two-electron integral transformation complete.
	(VV|VV)...
	Starting second half-transformation.
	Two-electron integral transformation complete.
	Frozen core energy     =      0.00000000000000

	Size of irrep 0 of <ab|cd> integrals:   5006.412 (MW) /  40051.292 (MB)
	Total:                                  5006.412 (MW) /  40051.292 (MB)

	Size of irrep 0 of <ia|bc> integrals:    188.211 (MW) /   1505.688 (MB)
	Total:                                   188.211 (MW) /   1505.688 (MB)

	Size of irrep 0 of tijab amplitudes:       7.076 (MW) /     56.605 (MB)
	Total:                                     7.076 (MW) /     56.605 (MB)

	Nuclear Rep. energy          =     35.78569842644781
	SCF energy                   =   -152.12213646433150
	One-electron energy          =   -280.99183559749287
	Two-electron energy          =     93.08400070671343
	Reference energy             =   -152.12213646433162

*** tstop() called on d-19-15-2 at Sun Sep 17 21:27:01 2023
Module time:
	user time   =     532.20 seconds =       8.87 minutes
	system time =     388.22 seconds =       6.47 minutes
	total time  =       1227 seconds =      20.45 minutes
Total time:
	user time   =   18208.58 seconds =     303.48 minutes
	system time =    8843.05 seconds =     147.38 minutes
	total time  =      31117 seconds =     518.62 minutes
            **************************
            *                        *
            *        CCENERGY        *
            *                        *
            **************************

    Nuclear Rep. energy (wfn)     =   35.785698426447809
    SCF energy          (wfn)     = -152.122136464331504
    Reference energy    (file100) = -152.122136464331618

    Input parameters:
    -----------------
    Wave function   =     CCSD_T
    Reference wfn   =     RHF
    Brueckner       =     No
    Memory (Mbytes) =     20000.0
    Maxiter         =     50
    R_Convergence   =     1.0e-07
    E_Convergence   =     1.0e-10
    Restart         =     Yes
    DIIS            =     Yes
    AO Basis        =     NONE
    ABCD            =     NEW
    Cache Level     =     2
    Cache Type      =     LOW
    Print Level     =     1
    Num. of threads =     1
    # Amps to Print =     10
    Print MP2 Amps? =     No
    Analyze T2 Amps =     No
    Print Pair Ener =     No
    Local CC        =     No
    SCS-MP2         =     False
    SCSN-MP2        =     False
    SCS-CCSD        =     False

MP2 correlation energy -0.5738394487413285
                Solving CC Amplitude Equations
                ------------------------------
  Iter             Energy              RMS        T1Diag      D1Diag    New D1Diag    D2Diag
  ----     ---------------------    ---------   ----------  ----------  ----------   --------
     0        -0.573839448741329    0.000e+00    0.000000    0.000000    0.000000    0.121325
     1        -0.569342498107345    5.147e-02    0.007882    0.018432    0.018432    0.122837
     2        -0.579782990796682    1.818e-02    0.007747    0.018184    0.018184    0.127656
     3        -0.582566680134113    7.201e-03    0.009027    0.021859    0.021859    0.129918
     4        -0.582287955641481    1.553e-03    0.009197    0.022388    0.022388    0.130125
     5        -0.582311873172560    6.087e-04    0.009292    0.022762    0.022762    0.130192
     6        -0.582327179617463    1.638e-04    0.009317    0.022868    0.022868    0.130191
     7        -0.582323333912280    6.284e-05    0.009323    0.022900    0.022900    0.130182
     8        -0.582321737197363    2.004e-05    0.009325    0.022909    0.022909    0.130179
     9        -0.582321983176461    7.915e-06    0.009325    0.022912    0.022912    0.130179
    10        -0.582321562000548    3.157e-06    0.009326    0.022913    0.022913    0.130179
    11        -0.582321523620146    1.312e-06    0.009326    0.022913    0.022913    0.130179
    12        -0.582321498688742    6.338e-07    0.009326    0.022913    0.022913    0.130179
[...]
  Nuclear repulsion =   35.785698426447809

  Charge       = 0
  Multiplicity = 1
  Electrons    = 20
  Nalpha       = 10
  Nbeta        = 10

  ==> Algorithm <==

  SCF Algorithm Type is PK.
  DIIS enabled.
  MOM disabled.
  Fractional occupation disabled.
  Guess Type is SAD.
  Energy threshold   = 1.00e-10
  Density threshold  = 1.00e-10
  Integral threshold = 1.00e-12

  ==> Primary Basis <==

  Basis Set: AUG-CC-PVTZ
    Blend: AUG-CC-PVTZ
    Number of shells: 64
    Number of basis functions: 184
    Number of Cartesian functions: 210
    Spherical Harmonics?: true
    Max angular momentum: 3

  ==> Integral Setup <==

  Using in-core PK algorithm.
   Calculation information:
      Number of atoms:                   6
      Number of AO shells:              64
      Number of primitives:            104
      Number of atomic orbitals:       210
      Number of basis functions:       184

      Integral cutoff                 1.00e-12
      Number of threads:                 1

  Performing in-core PK
  Using 289697420 doubles for integral storage.
  We computed 2052314 shell quartets total.
  Whereas there are 2164240 unique shell quartets.

  ==> DiskJK: Disk-Based J/K Matrices <==

    J tasked:                  Yes
    K tasked:                  Yes
    wK tasked:                  No
    Memory [MiB]:            14305
    Schwarz Cutoff:          1E-12

    OpenMP threads:              1

  Minimum eigenvalue in the overlap matrix is 2.4539265225E-04.
  Reciprocal condition number of the overlap matrix is 2.7462837964E-05.
    Using symmetric orthogonalization.

  ==> Pre-Iterations <==

  SCF Guess: Superposition of Atomic Densities via on-the-fly atomic UHF (no occupation information).

   -------------------------
    Irrep   Nso     Nmo    
   -------------------------
     A        184     184 
   -------------------------
    Total     184     184
   -------------------------

  ==> Iterations <==

                        Total Energy        Delta E     RMS |[F,P]|

   @RHF iter SAD:  -150.97639828291170   -1.50976e+02   0.00000e+00 
   @RHF iter   1:  -151.96465622742394   -9.88258e-01   3.45900e-03 DIIS/ADIIS
   @RHF iter   2:  -152.06500183323749   -1.00346e-01   2.32277e-03 DIIS/ADIIS
   @RHF iter   3:  -152.12114945041185   -5.61476e-02   1.72960e-04 DIIS/ADIIS
   @RHF iter   4:  -152.12201908453113   -8.69634e-04   4.28070e-05 DIIS
   @RHF iter   5:  -152.12207560840938   -5.65239e-05   1.41038e-05 DIIS
   @RHF iter   6:  -152.12208133922286   -5.73081e-06   6.34862e-06 DIIS
   @RHF iter   7:  -152.12208226507326   -9.25850e-07   1.23937e-06 DIIS
   @RHF iter   8:  -152.12208233891243   -7.38392e-08   2.09685e-07 DIIS
   @RHF iter   9:  -152.12208234086700   -1.95456e-09   3.40061e-08 DIIS
   @RHF iter  10:  -152.12208234091389   -4.68958e-11   9.35028e-09 DIIS
   @RHF iter  11:  -152.12208234091696   -3.06954e-12   1.82634e-09 DIIS
   @RHF iter  12:  -152.12208234091713   -1.70530e-13   3.94221e-10 DIIS
   @RHF iter  13:  -152.12208234091693    1.98952e-13   1.54506e-10 DIIS
   @RHF iter  14:  -152.12208234091727   -3.41061e-13   3.21607e-11 DIIS
  Energy and wave function converged.


  ==> Post-Iterations <==

    Orbital Energies [Eh]
    ---------------------

    Doubly Occupied:                                                      

       1A    -20.593739     2A    -20.542554     3A     -1.369772  
       4A     -1.313233     5A     -0.735059     6A     -0.681556  
       7A     -0.607690     8A     -0.557501     9A     -0.529160  
      10A     -0.481772  

    Virtual:                                                              

      11A      0.022872    12A      0.045491    13A      0.046481  
      14A      0.075823    15A      0.122053    16A      0.141844  
      17A      0.163649    18A      0.169863    19A      0.177324  
      20A      0.185402    21A      0.212818    22A      0.217442  
      23A      0.235172    24A      0.242604    25A      0.267747  
      26A      0.272043    27A      0.295139    28A      0.310271  
      29A      0.362986    30A      0.369743    31A      0.371884  
      32A      0.405710    33A      0.407907    34A      0.437513  
      35A      0.440310    36A      0.453581    37A      0.476911  
      38A      0.578179    39A      0.590750    40A      0.616155  
      41A      0.666707    42A      0.708558    43A      0.714542  
      44A      0.728167    45A      0.752285    46A      0.769918  
      47A      0.787347    48A      0.789334    49A      0.823024  
      50A      0.830434    51A      0.853841    52A      0.884394  
      53A      0.906170    54A      0.927671    55A      0.939522  
      56A      0.955814    57A      0.957910    58A      0.968584  
      59A      0.984467    60A      0.995959    61A      1.013194  
      62A      1.019599    63A      1.027878    64A      1.042684  
      65A      1.065915    66A      1.110553    67A      1.146433  
      68A      1.169825    69A      1.181145    70A      1.224021  
      71A      1.228653    72A      1.243422    73A      1.282891  
      74A      1.296104    75A      1.353972    76A      1.440062  
      77A      1.447051    78A      1.515155    79A      1.553145  
      80A      1.566839    81A      1.622909    82A      1.642496  
      83A      1.665455    84A      1.735122    85A      1.801452  
      86A      1.827658    87A      1.932248    88A      1.984379  
      89A      2.009081    90A      2.079239    91A      2.121705  
      92A      2.262415    93A      2.309757    94A      2.315797  
      95A      2.322472    96A      2.399440    97A      2.432403  
      98A      2.450426    99A      2.475256   100A      2.478410  
     101A      2.493139   102A      2.506869   103A      2.548396  
     104A      2.607284   105A      2.661116   106A      2.704542  
     107A      2.728050   108A      2.763706   109A      2.768241  
     110A      2.784156   111A      2.851712   112A      2.890370  
     113A      2.907551   114A      2.958970   115A      2.993885  
     116A      3.009609   117A      3.701865   118A      3.740681  
     119A      3.768211   120A      3.994471   121A      4.050511  
     122A      4.065274   123A      4.183160   124A      4.201489  
     125A      4.205354   126A      4.229950   127A      4.248983  
     128A      4.294350   129A      4.321632   130A      4.395218  
     131A      4.412236   132A      4.444718   133A      4.454679  
     134A      4.469697   135A      4.478336   136A      4.547963  
     137A      4.578283   138A      4.692029   139A      4.718042  
     140A      4.793081   141A      4.829859   142A      4.971350  
     143A      5.060815   144A      5.120862   145A      5.125045  
     146A      5.182526   147A      5.250998   148A      5.273851  
     149A      5.321093   150A      5.341968   151A      5.501582  
     152A      5.592564   153A      5.689900   154A      5.728941  
     155A      6.200594   156A      6.294060   157A      6.526847  
     158A      6.569525   159A      6.758365   160A      6.771875  
     161A      6.887555   162A      6.939778   163A      7.117657  
     164A      7.150822   165A      7.245134   166A      7.274455  
     167A      7.293262   168A      7.302889   169A      7.327899  
     170A      7.335313   171A      7.352691   172A      7.382621  
     173A      7.415552   174A      7.503429   175A      7.558035  
     176A      7.676536   177A      7.875000   178A      7.894292  
     179A      7.949481   180A      8.016769   181A      8.761153  
     182A      8.788115   183A     15.280443   184A     16.234408  

    Final Occupation by Irrep:
              A 
    DOCC [    10 ]
    NA   [    10 ]
    NB   [    10 ]

  @RHF Final Energy:  -152.12208234091727

   => Energetics <=

    Nuclear Repulsion Energy =             35.7856984264478086
    One-Electron Energy =                -280.9914884420001044
    Two-Electron Energy =                  93.0837076746350078
    Total Energy =                       -152.1220823409172738

Computation Completed


Properties will be evaluated at   0.000000,   0.000000,   0.000000 [a0]

Properties computed using the SCF density matrix


 Multipole Moments:

 ------------------------------------------------------------------------------------
     Multipole            Electronic (a.u.)      Nuclear  (a.u.)        Total (a.u.)
 ------------------------------------------------------------------------------------

 L = 1.  Multiply by 2.5417464519 to convert [e a0] to [Debye]
 Dipole X            :         83.6852044          -83.0155309            0.6696735
 Dipole Y            :        -76.7357905           77.2852810            0.5494906
 Dipole Z            :        -88.3966900           88.9823396            0.5856496
 Magnitude           :                                                    1.0456519

 ------------------------------------------------------------------------------------

*** tstop() called on d-19-15-2 at Mon Sep 18 02:44:45 2023
Module time:
	user time   =      17.89 seconds =       0.30 minutes
	system time =       0.75 seconds =       0.01 minutes
	total time  =         19 seconds =       0.32 minutes
Total time:
	user time   =   29751.60 seconds =     495.86 minutes
	system time =   14675.23 seconds =     244.59 minutes
	total time  =      50181 seconds =     836.35 minutes
 MINTS: Wrapper to libmints.
   by Justin Turney

   Calculation information:
      Number of threads:                 1
      Number of atoms:                   6
      Number of AO shells:              64
      Number of SO shells:              64
      Number of primitives:            104
      Number of atomic orbitals:       210
      Number of basis functions:       184

      Number of irreps:                  1
      Integral cutoff                 1.00e-12
      Number of functions per irrep: [ 184 ]

 OEINTS: Overlap, kinetic, potential, dipole, and quadrupole integrals
         stored in file 35.

      Computing two-electron integrals...done
      Computed 132359667 non-zero two-electron integrals.
        Stored in file 33.


*** tstart() called on d-19-15-2
*** at Mon Sep 18 02:44:56 2023


	Wfn Parameters:
	--------------------
	Wavefunction         = CCSD_T
	Number of irreps     = 1
	Number of MOs        = 184
	Number of active MOs = 184
	AO-Basis             = NONE
	Semicanonical        = false
	Reference            = RHF
	Print Level          = 1

	IRREP	# MOs	# FZDC	# DOCC	# SOCC	# VIRT	# FZVR
	-----	-----	------	------	------	------	------
	 A	   184	    0	    10	    0	    174	    0
	Transforming integrals...
	IWL integrals will be deleted.
	(OO|OO)...
	Presorting SO-basis two-electron integrals.
	Sorting File: SO Ints (nn|nn) nbuckets = 1
	Constructing frozen core operators
	Starting first half-transformation.
	Sorting half-transformed integrals.
	First half integral transformation complete.
	Starting second half-transformation.
	Two-electron integral transformation complete.
	(OO|OV)...
	Starting second half-transformation.
	Two-electron integral transformation complete.
	(OO|VV)...
	Starting second half-transformation.
	Two-electron integral transformation complete.
	(OV|OO)...
	Starting first half-transformation.
	Sorting half-transformed integrals.
	First half integral transformation complete.
	Starting second half-transformation.
	Two-electron integral transformation complete.
	(OV|OV)...
	Starting second half-transformation.
	Two-electron integral transformation complete.
	(OV|VV)...
	Starting second half-transformation.
	Two-electron integral transformation complete.
	(VV|OO)...
	Starting first half-transformation.
	Sorting half-transformed integrals.
	First half integral transformation complete.
	Starting second half-transformation.
	Two-electron integral transformation complete.
	(VV|OV)...
	Starting second half-transformation.
	Two-electron integral transformation complete.
	(VV|VV)...
	Starting second half-transformation.
	Two-electron integral transformation complete.
	Frozen core energy     =      0.00000000000000

	Size of irrep 0 of <ab|cd> integrals:    916.636 (MW) /   7333.089 (MB)
	Total:                                   916.636 (MW) /   7333.089 (MB)

	Size of irrep 0 of <ia|bc> integrals:     52.680 (MW) /    421.442 (MB)
	Total:                                    52.680 (MW) /    421.442 (MB)

	Size of irrep 0 of tijab amplitudes:       3.028 (MW) /     24.221 (MB)
	Total:                                     3.028 (MW) /     24.221 (MB)

	Nuclear Rep. energy          =     35.78569842644781
	SCF energy                   =   -152.12208234091727
	One-electron energy          =   -280.99148843196360
	Two-electron energy          =     93.08370766459856
	Reference energy             =   -152.12208234091725

*** tstop() called on d-19-15-2 at Mon Sep 18 02:46:48 2023
Module time:
	user time   =      59.63 seconds =       0.99 minutes
	system time =      51.44 seconds =       0.86 minutes
	total time  =        112 seconds =       1.87 minutes
Total time:
	user time   =   29819.72 seconds =     497.00 minutes
	system time =   14729.84 seconds =     245.50 minutes
	total time  =      50304 seconds =     838.40 minutes
            **************************
            *                        *
            *        CCENERGY        *
            *                        *
            **************************

    Nuclear Rep. energy (wfn)     =   35.785698426447809
    SCF energy          (wfn)     = -152.122082340917274
    Reference energy    (file100) = -152.122082340917245

    Input parameters:
    -----------------
    Wave function   =     CCSD_T
    Reference wfn   =     RHF
    Brueckner       =     No
    Memory (Mbytes) =     20000.0
    Maxiter         =     50
    R_Convergence   =     1.0e-07
    E_Convergence   =     1.0e-10
    Restart         =     Yes
    DIIS            =     Yes
    AO Basis        =     NONE
    ABCD            =     NEW
    Cache Level     =     2
    Cache Type      =     LOW
    Print Level     =     1
    Num. of threads =     1
    # Amps to Print =     10
    Print MP2 Amps? =     No
    Analyze T2 Amps =     No
    Print Pair Ener =     No
    Local CC        =     No
    SCS-MP2         =     False
    SCSN-MP2        =     False
    SCS-CCSD        =     False

MP2 correlation energy -0.5732135656906839
                Solving CC Amplitude Equations
                ------------------------------
  Iter             Energy              RMS        T1Diag      D1Diag    New D1Diag    D2Diag
  ----     ---------------------    ---------   ----------  ----------  ----------   --------
     0        -0.573213565690684    0.000e+00    0.000000    0.000000    0.000000    0.121318
     1        -0.568718527309958    5.147e-02    0.007884    0.018437    0.018437    0.122837
     2        -0.579156645738884    1.817e-02    0.007749    0.018190    0.018190    0.127658
     3        -0.581938413622681    7.194e-03    0.009031    0.021866    0.021866    0.129919
     4        -0.581656936698870    1.541e-03    0.009199    0.022393    0.022393    0.130125
     5        -0.581683185545244    5.999e-04    0.009295    0.022766    0.022766    0.130192
     6        -0.581697548081288    1.572e-04    0.009319    0.022869    0.022869    0.130190
     7        -0.581693481598348    6.000e-05    0.009325    0.022900    0.022900    0.130181
     8        -0.581692031790272    1.890e-05    0.009326    0.022908    0.022908    0.130179
     9        -0.581692306644782    7.614e-06    0.009327    0.022912    0.022912    0.130179
    10        -0.581691856610664    3.036e-06    0.009327    0.022913    0.022913    0.130179
    11        -0.581691842109365    1.201e-06    0.009327    0.022913    0.022913    0.130179
    12        -0.581691817750874    5.811e-07    0.009327    0.022913    0.022913    0.130179
    13        -0.581691806288560    2.065e-07    0.009327    0.022912    0.022912    0.130179
    14        -0.581691806783491    7.300e-08    0.009327    0.022912    0.022912    0.130179
    15        -0.581691807457203    2.844e-08    0.009327    0.022912    0.022912    0.130179
    16        -0.581691807238156    1.072e-08    0.009327    0.022912    0.022912    0.130179
    17        -0.581691807188049    4.377e-09    0.009327    0.022912    0.022912    0.130179
    18        -0.581691807190959    1.797e-09    0.009327    0.022912    0.022912    0.130179

    Iterations converged.


    Largest TIA Amplitudes:
              9   7         0.0143133115
              9  22         0.0090441265
              9  17         0.0086455108
              8   4         0.0083557487
              8  16         0.0073881467
              6   4        -0.0069817829
              7   6        -0.0067964552
              7  21         0.0063287419
              6  19         0.0061811016
              8   3        -0.0060982179

    Largest TIjAb Amplitudes:
      4   4  25  25        -0.0213720378
      5   5  26  26        -0.0196079675
      4   4   8  25        -0.0115827996
      4   4  25   8        -0.0115827996
      4   4  28  28        -0.0105624610
      4   4  25  50        -0.0103428501
      4   4  50  25        -0.0103428501
      4   4  25  28        -0.0093827107
      4   4  28  25        -0.0093827107
      6   6  28  28        -0.0089611690

    SCF energy       (wfn)                    = -152.122082340917274
    Reference energy (file100)                = -152.122082340917245

    Opposite-spin MP2 correlation energy      =   -0.434471380809207
    Same-spin MP2 correlation energy          =   -0.138742184881477
    Singles MP2 correlation energy            =   -0.000000000000000
    MP2 correlation energy                    =   -0.573213565690684
      * MP2 total energy                      = -152.695295906607925

    Opposite-spin CCSD correlation energy     =   -0.458194316672361
    Same-spin CCSD correlation energy         =   -0.123497490518598
    Singles CCSD correlation energy           =    0.000000000000000
    CCSD correlation energy                   =   -0.581691807190959
      * CCSD total energy                     = -152.703774148108209

            **************************
            *                        *
            *        CCTRIPLES       *
            *                        *
            **************************


    Wave function   =    CCSD_T
    Reference wfn   =      RHF

    Nuclear Rep. energy (wfn)                =   35.785698426447809
    SCF energy          (wfn)                = -152.122082340917274
    Reference energy    (file100)            = -152.122082340917245
    CCSD energy         (file100)            =   -0.581691807190959
    Total CCSD energy   (file100)            = -152.703774148108209

    Number of ijk index combinations:              220
    Memory available in words               :      2500000000
    Approx. words needed per explicit thread:        21072096
    Number of threads for explicit ijk threading:    1

    MKL num_threads set to 1 for explicit threading.

    (T) energy                                =   -0.018390467827127
      * CCSD(T) total energy                  = -152.722164615935327


    Psi4 stopped on: Monday, 18 September 2023 02:53AM
    Psi4 wall time for execution: 0:09:00.42


  //>>>>>>>>>>>>>>>>>>>>>>>>>>>>>>>>>>>//
  //          ManyBody Results         //
  //<<<<<<<<<<<<<<<<<<<<<<<<<<<<<<<<<<<//


   ==> N-Body: Counterpoise Corrected (CP) energies <==

        n-Body     Total Energy            Interaction Energy                          N-body Contribution to Interaction Energy
                   [Eh]                    [Eh]                  [kcal/mol]            [Eh]                  [kcal/mol]
             1  N/A                         0.000000000000        0.000000000000        0.000000000000        0.000000000000
  FULL/RTN   2  N/A                        -0.007704877266       -4.834883478731       -0.007704877266       -4.834883478731


