Scratch directory: /home/gridsan/kfisher/scratch/

  //>>>>>>>>>>>>>>>>>>>>>>>>>>>>>>>>>>>>>>>>//
  // ManyBody Setup: N-Body Levels [1, 2, 3]//
  //<<<<<<<<<<<<<<<<<<<<<<<<<<<<<<<<<<<<<<<<//

        Number of 1-body computations:     3
        Number of 2-body computations:     3
        Number of 3-body computations:     1

    -----------------------------------------------------------------------
          Psi4: An Open-Source Ab Initio Electronic Structure Package
                               Psi4 1.7 release

                         Git: Rev {HEAD} 6ce35a5 


    D. G. A. Smith, L. A. Burns, A. C. Simmonett, R. M. Parrish,
    M. C. Schieber, R. Galvelis, P. Kraus, H. Kruse, R. Di Remigio,
    A. Alenaizan, A. M. James, S. Lehtola, J. P. Misiewicz, M. Scheurer,
    R. A. Shaw, J. B. Schriber, Y. Xie, Z. L. Glick, D. A. Sirianni,
    J. S. O'Brien, J. M. Waldrop, A. Kumar, E. G. Hohenstein,
    B. P. Pritchard, B. R. Brooks, H. F. Schaefer III, A. Yu. Sokolov,
    K. Patkowski, A. E. DePrince III, U. Bozkaya, R. A. King,
    F. A. Evangelista, J. M. Turney, T. D. Crawford, C. D. Sherrill,
    J. Chem. Phys. 152(18) 184108 (2020). https://doi.org/10.1063/5.0006002

                            Additional Code Authors
    E. T. Seidl, C. L. Janssen, E. F. Valeev, M. L. Leininger,
    J. F. Gonthier, R. M. Richard, H. R. McAlexander, M. Saitow, X. Wang,
    P. Verma, M. H. Lechner, A. Jiang, S. Behnle, A. G. Heide,
    M. F. Herbst, and D. L. Poole

             Previous Authors, Complete List of Code Contributors,
                       and Citations for Specific Modules
    https://github.com/psi4/psi4/blob/master/codemeta.json
    https://github.com/psi4/psi4/graphs/contributors
    http://psicode.org/psi4manual/master/introduction.html#citing-psifour

    -----------------------------------------------------------------------


    Psi4 started on: Sunday, 17 September 2023 12:48PM

    Process ID: 258105
    Host:       d-19-15-2
    PSIDATADIR: /home/gridsan/kfisher/.conda/envs/p4env/share/psi4
    Memory:     18.6 GiB
    Threads:    1
    
  ==> Input QCSchema <==

--------------------------------------------------------------------------
{'driver': 'energy',
 'extras': {'psiapi': True, 'wfn_qcvars_only': True},
 'id': None,
 'keywords': {'D_CONVERGENCE': 1e-10, 'E_CONVERGENCE': 1e-10, 'function_kwargs': {'dft_functional': 'scan-d3zero2b'}},
 'model': {'basis': 'aug-cc-pvtz', 'method': 'scf'},
 'molecule': {'atom_labels': ['', '', '', '', '', '', '', '', ''],
              'atomic_numbers': [1, 1, 8, 1, 1, 8, 1, 1, 8],
              'fix_com': True,
              'fix_orientation': True,
              'fix_symmetry': 'c1',
              'fragment_charges': [0.0, 0.0, 0.0],
              'fragment_multiplicities': [1, 1, 1],
              'fragments': [[0, 1, 2], [3, 4, 5], [6, 7, 8]],
              'geometry': [3.520742357066175, 4.789301483318165, 2.2580148122537818, 0.8280181405492271,
                           4.531448523574795, 0.8920520016391582, 1.7613829945924417, 4.421313848791257,
                           2.5379526232801517, -2.793960870174372, 6.943699588551293, 6.435018990497602,
                           -0.9635801763919524, 5.30409863351117, 4.817622128458996, -2.3945346368859344,
                           5.212941079808273, 6.003976599780885, -6.711341793240494, 0.9374720037015459,
                           3.7080240804694213, -4.903110390401952, 3.236378920837551, 3.948734370768439,
                           -6.06090756618032, 2.3950129076710263, 2.755140906680497],
              'mass_numbers': [1, 1, 16, 1, 1, 16, 1, 1, 16],
              'masses': [1.00782503223, 1.00782503223, 15.99491461957, 1.00782503223, 1.00782503223, 15.99491461957,
                         1.00782503223, 1.00782503223, 15.99491461957],
              'molecular_charge': 0.0,
              'molecular_multiplicity': 1,
              'name': 'H6O3',
              'provenance': {'creator': 'QCElemental',
                             'routine': 'qcelemental.molparse.from_string',
                             'version': 'v0.25.1'},
              'real': [True, True, True, False, False, False, False, False, False],
              'schema_name': 'qcschema_molecule',
              'schema_version': 2,
              'symbols': ['H', 'H', 'O', 'H', 'H', 'O', 'H', 'H', 'O'],
              'validated': True},
 'protocols': {'stdout': True},
 'provenance': {'creator': 'QCElemental', 'routine': 'qcelemental.models.results', 'version': 'v0.25.1'},
 'schema_name': 'qcschema_input',
 'schema_version': 1}
--------------------------------------------------------------------------

Scratch directory: /home/gridsan/kfisher/scratch/

*** tstart() called on d-19-15-2
*** at Sun Sep 17 19:51:53 2023

   => Loading Basis Set <=

    Name: AUG-CC-PVTZ
    Role: ORBITAL
    Keyword: BASIS
    atoms 1-2, 4-5, 7-8 entry H          line    40 file /home/gridsan/kfisher/.conda/envs/p4env/share/psi4/basis/aug-cc-pvtz.gbs 
    atoms 3, 6, 9       entry O          line   331 file /home/gridsan/kfisher/.conda/envs/p4env/share/psi4/basis/aug-cc-pvtz.gbs 

   => SCAN-D3: Empirical Dispersion <=

    Grimme's -D3 (zero-damping) Dispersion Correction
    Grimme S.; Antony J.; Ehrlich S.; Krieg H. (2010), J. Chem. Phys., 132: 154104
    Parametrisation from:    J.G. Brandenburg, J. E. Bates, J. Sun, J.P. Perdew, Phys. Rev. B 94, 115144, 2016

        s6 =       1.000000
        s8 =       0.000000
       sr6 =       1.324000
    alpha6 =      14.000000
       sr8 =       1.000000


         ---------------------------------------------------------
                                   SCF
               by Justin Turney, Rob Parrish, Andy Simmonett
                          and Daniel G. A. Smith
                              RKS Reference
                        1 Threads,  19073 MiB Core
         ---------------------------------------------------------

  ==> Geometry <==

    Molecular point group: c1
    Full point group: C1

    Geometry (in Bohr), charge = 0, multiplicity = 1:

       Center              X                  Y                   Z               Mass       
    ------------   -----------------  -----------------  -----------------  -----------------
         H            3.520742357066     4.789301483318     2.258014812254     1.007825032230
         H            0.828018140549     4.531448523575     0.892052001639     1.007825032230
         O            1.761382994592     4.421313848791     2.537952623280    15.994914619570
      Gh(H)          -2.793960870174     6.943699588551     6.435018990498     1.007825032230
      Gh(H)          -0.963580176392     5.304098633511     4.817622128459     1.007825032230
      Gh(O)          -2.394534636886     5.212941079808     6.003976599781    15.994914619570
      Gh(H)          -6.711341793240     0.937472003702     3.708024080469     1.007825032230
      Gh(H)          -4.903110390402     3.236378920838     3.948734370768     1.007825032230
      Gh(O)          -6.060907566180     2.395012907671     2.755140906680    15.994914619570

  Running in c1 symmetry.

  Rotational constants: A =      0.09945  B =      0.02849  C =      0.02256 [cm^-1]
  Rotational constants: A =   2981.32606  B =    853.96321  C =    676.39703 [MHz]
  Nuclear repulsion =    8.948665473044361

  Charge       = 0
  Multiplicity = 1
  Electrons    = 10
  Nalpha       = 5
  Nbeta        = 5

  ==> Algorithm <==

  SCF Algorithm Type is DF.
  DIIS enabled.
  MOM disabled.
  Fractional occupation disabled.
  Guess Type is SAD.
  Energy threshold   = 1.00e-10
  Density threshold  = 1.00e-10
  Integral threshold = 1.00e-12

  ==> Primary Basis <==

  Basis Set: AUG-CC-PVTZ
    Blend: AUG-CC-PVTZ
    Number of shells: 96
    Number of basis functions: 276
    Number of Cartesian functions: 315
    Spherical Harmonics?: true
    Max angular momentum: 3

  ==> DFT Potential <==

   => Composite Functional: SCAN-D3ZERO2B <= 

    SCAN Meta-GGA XC Functional
(10.1103/PhysRevLett.115.036402)
    J. Sun, A. Ruzsinszky, J. P. Perdew  Phys. Rev. Lett. 115, 036402, 2015


    Deriv               =              1
    GGA                 =           TRUE
    Meta                =           TRUE

    Exchange Hybrid     =          FALSE
    MP2 Hybrid          =          FALSE

   => Exchange Functionals <=

    1.0000   XC_MGGA_X_SCAN

   => Correlation Functionals <=

    1.0000   XC_MGGA_C_SCAN

   => LibXC Density Thresholds  <==

    XC_MGGA_C_SCAN:  1.00E-15 
    XC_MGGA_X_SCAN:  1.00E-15 

   => Molecular Quadrature <=

    Radial Scheme          =       TREUTLER
    Pruning Scheme         =           NONE
    Nuclear Scheme         =       TREUTLER

    Blocking Scheme        =         OCTREE
    BS radius alpha        =              1
    Pruning alpha          =              1
    Radial Points          =             75
    Spherical Points       =            302
    Total Points           =         197843
    Total Blocks           =           1490
    Max Points             =            256
    Max Functions          =            259
    Weights Tolerance      =       1.00E-15

   => Loading Basis Set <=

    Name: (AUG-CC-PVTZ AUX)
    Role: JKFIT
    Keyword: DF_BASIS_SCF
    atoms 1-2, 4-5, 7-8 entry H          line    70 file /home/gridsan/kfisher/.conda/envs/p4env/share/psi4/basis/aug-cc-pvtz-jkfit.gbs 
    atoms 3, 6, 9       entry O          line   286 file /home/gridsan/kfisher/.conda/envs/p4env/share/psi4/basis/aug-cc-pvtz-jkfit.gbs 

  ==> Integral Setup <==

  DFHelper Memory: AOs need 0.334 GiB; user supplied 11.006 GiB. Using in-core AOs.

  ==> MemDFJK: Density-Fitted J/K Matrices <==

    J tasked:                   Yes
    K tasked:                    No
    wK tasked:                   No
    OpenMP threads:               1
    Memory [MiB]:             11270
    Algorithm:                 Core
    Schwarz Cutoff:           1E-12
    Mask sparsity (%):       5.4453
    Fitting Condition:        1E-10

   => Auxiliary Basis Set <=

  Basis Set: (AUG-CC-PVTZ AUX)
    Blend: AUG-CC-PVTZ-JKFIT
    Number of shells: 174
    Number of basis functions: 588
    Number of Cartesian functions: 723
    Spherical Harmonics?: true
    Max angular momentum: 4

  Cached 100.0% of DFT collocation blocks in 2.964 [GiB].

  Minimum eigenvalue in the overlap matrix is 1.8370893870E-04.
  Reciprocal condition number of the overlap matrix is 1.7682537371E-05.
    Using symmetric orthogonalization.

  ==> Pre-Iterations <==

  SCF Guess: Superposition of Atomic Densities via on-the-fly atomic UHF (no occupation information).

   -------------------------
    Irrep   Nso     Nmo    
   -------------------------
     A        276     276 
   -------------------------
    Total     276     276
   -------------------------

  ==> Iterations <==

                           Total Energy        Delta E     RMS |[F,P]|

   @DF-RKS iter SAD:   -76.05032604944047   -7.60503e+01   0.00000e+00 
   @DF-RKS iter   1:   -76.24061319892863   -1.90287e-01   2.64585e-03 DIIS/ADIIS
   @DF-RKS iter   2:   -75.63141310631617    6.09200e-01   5.08196e-03 DIIS/ADIIS
   @DF-RKS iter   3:   -76.42717873574314   -7.95766e-01   2.27390e-04 DIIS/ADIIS
   @DF-RKS iter   4:   -76.42903731217861   -1.85858e-03   2.65728e-05 DIIS
   @DF-RKS iter   5:   -76.42905429020003   -1.69780e-05   7.68471e-06 DIIS
   @DF-RKS iter   6:   -76.42905584136896   -1.55117e-06   5.40917e-07 DIIS
   @DF-RKS iter   7:   -76.42905584829150   -6.92253e-09   1.68537e-07 DIIS
   @DF-RKS iter   8:   -76.42905584909359   -8.02089e-10   4.36846e-08 DIIS
   @DF-RKS iter   9:   -76.42905584915381   -6.02256e-11   2.06591e-09 DIIS
   @DF-RKS iter  10:   -76.42905584915395   -1.42109e-13   1.85834e-10 DIIS
   @DF-RKS iter  11:   -76.42905584915412   -1.70530e-13   2.38511e-11 DIIS
  Energy and wave function converged.


  ==> Post-Iterations <==

   Electrons on quadrature grid:
      Ntotal   =   10.0000001023 ; deviation = 1.023e-07 

    Orbital Energies [Eh]
    ---------------------

    Doubly Occupied:                                                      

       1A    -18.969591     2A     -0.969770     3A     -0.500317  
       4A     -0.347221     5A     -0.276942  

    Virtual:                                                              

       6A     -0.012593     7A      0.028956     8A      0.036781  
       9A      0.046762    10A      0.061175    11A      0.072079  
      12A      0.088539    13A      0.100719    14A      0.122334  
      15A      0.122581    16A      0.129393    17A      0.145649  
      18A      0.151981    19A      0.156542    20A      0.172002  
      21A      0.185323    22A      0.193556    23A      0.205611  
      24A      0.222879    25A      0.239322    26A      0.247224  
      27A      0.255453    28A      0.290193    29A      0.296977  
      30A      0.307628    31A      0.317615    32A      0.328954  
      33A      0.329775    34A      0.341570    35A      0.347275  
      36A      0.361436    37A      0.366597    38A      0.377625  
      39A      0.383396    40A      0.394493    41A      0.410811  
      42A      0.421349    43A      0.428016    44A      0.453319  
      45A      0.456584    46A      0.503803    47A      0.528451  
      48A      0.541340    49A      0.580595    50A      0.622249  
      51A      0.638226    52A      0.671613    53A      0.683511  
      54A      0.688492    55A      0.704132    56A      0.722617  
      57A      0.760173    58A      0.770119    59A      0.779277  
      60A      0.794550    61A      0.805957    62A      0.818203  
      63A      0.820655    64A      0.838849    65A      0.845351  
      66A      0.859241    67A      0.870333    68A      0.874236  
      69A      0.877263    70A      0.887394    71A      0.903163  
      72A      0.903615    73A      0.912991    74A      0.930803  
      75A      0.940889    76A      0.951014    77A      0.953671  
      78A      0.967623    79A      0.985360    80A      0.999250  
      81A      1.013581    82A      1.017314    83A      1.060504  
      84A      1.062418    85A      1.074195    86A      1.093364  
      87A      1.109536    88A      1.112605    89A      1.121393  
      90A      1.157259    91A      1.161103    92A      1.178346  
      93A      1.202762    94A      1.211367    95A      1.247561  
      96A      1.249507    97A      1.284636    98A      1.307806  
      99A      1.365260   100A      1.375736   101A      1.392115  
     102A      1.417204   103A      1.446933   104A      1.479416  
     105A      1.497068   106A      1.515083   107A      1.586073  
     108A      1.591868   109A      1.621008   110A      1.629091  
     111A      1.663027   112A      1.678490   113A      1.701848  
     114A      1.726545   115A      1.773423   116A      1.786152  
     117A      1.798987   118A      1.839736   119A      1.845892  
     120A      1.850895   121A      1.884501   122A      1.891146  
     123A      1.930408   124A      1.965700   125A      2.016046  
     126A      2.079584   127A      2.131414   128A      2.164253  
     129A      2.199415   130A      2.241854   131A      2.262745  
     132A      2.325980   133A      2.385566   134A      2.444946  
     135A      2.457798   136A      2.461978   137A      2.513139  
     138A      2.522751   139A      2.536664   140A      2.550809  
     141A      2.567202   142A      2.593981   143A      2.611254  
     144A      2.618612   145A      2.639854   146A      2.661235  
     147A      2.683905   148A      2.710800   149A      2.736365  
     150A      2.742924   151A      2.771952   152A      2.801368  
     153A      2.840187   154A      2.893611   155A      2.909837  
     156A      2.979619   157A      3.020673   158A      3.108160  
     159A      3.174639   160A      3.183501   161A      3.248137  
     162A      3.317265   163A      3.380873   164A      3.441114  
     165A      3.456478   166A      3.473700   167A      3.492499  
     168A      3.513372   169A      3.543051   170A      3.616641  
     171A      3.648018   172A      3.740420   173A      3.833007  
     174A      3.860222   175A      3.906149   176A      4.001958  
     177A      4.127678   178A      4.177059   179A      4.271117  
     180A      4.300406   181A      4.366608   182A      4.398852  
     183A      4.436186   184A      4.448412   185A      4.462210  
     186A      4.479932   187A      4.494273   188A      4.533957  
     189A      4.584750   190A      4.618261   191A      4.636952  
     192A      4.670820   193A      4.727834   194A      4.743914  
     195A      4.844084   196A      4.870607   197A      4.894044  
     198A      4.923098   199A      4.969494   200A      4.991526  
     201A      5.022832   202A      5.080305   203A      5.124697  
     204A      5.149934   205A      5.182586   206A      5.278948  
     207A      5.291304   208A      5.353941   209A      5.390924  
     210A      5.466543   211A      5.507811   212A      5.558598  
     213A      5.592629   214A      5.600303   215A      5.705949  
     216A      5.744207   217A      5.789274   218A      5.851124  
     219A      5.885518   220A      6.015167   221A      6.157031  
     222A      6.333764   223A      6.364234   224A      6.429733  
     225A      6.525497   226A      6.578975   227A      6.630211  
     228A      6.724551   229A      6.765944   230A      6.883489  
     231A      6.935306   232A      6.989397   233A      6.996785  
     234A      7.035535   235A      7.067316   236A      7.146315  
     237A      7.188724   238A      7.410591   239A      7.605563  
     240A      7.640174   241A      7.704871   242A      7.757966  
     243A      7.849887   244A      7.920261   245A      8.016792  
     246A      8.119182   247A      8.168834   248A      8.226539  
     249A      8.271774   250A      8.364893   251A      8.411968  
     252A      8.703386   253A      8.836149   254A      8.890099  
     255A      9.034715   256A      9.643027   257A      9.828997  
     258A      9.849229   259A     10.025955   260A     10.085230  
     261A     10.157703   262A     10.331666   263A     10.355833  
     264A     11.113426   265A     11.237818   266A     11.694104  
     267A     11.887424   268A     11.952793   269A     12.381802  
     270A     13.500673   271A     13.634968   272A     13.978466  
     273A     14.074784   274A     14.956783   275A     64.547836  
     276A     66.694315  

    Final Occupation by Irrep:
              A 
    DOCC [     5 ]
    NA   [     5 ]
    NB   [     5 ]

  @DF-RKS Final Energy:   -76.42905584915412

   => Energetics <=

    Nuclear Repulsion Energy =              8.9486654730443611
    One-Electron Energy =                -122.6270492898311204
    Two-Electron Energy =                  46.5248009393207838
    DFT Exchange-Correlation Energy =      -9.2754727816881548
    Empirical Dispersion Energy =          -0.0000001900000000
    VV10 Nonlocal Energy =                  0.0000000000000000
    Total Energy =                        -76.4290558491541248

Computation Completed


Properties will be evaluated at   0.000000,   0.000000,   0.000000 [a0]

Properties computed using the SCF density matrix


 Multipole Moments:

 ------------------------------------------------------------------------------------
     Multipole            Electronic (a.u.)      Nuclear  (a.u.)        Total (a.u.)
 ------------------------------------------------------------------------------------

 L = 1.  Multiply by 2.5417464519 to convert [e a0] to [Debye]
 Dipole X            :        -18.1661763           18.4398245            0.2736482
 Dipole Y            :        -44.5363332           44.6912608            0.1549276
 Dipole Z            :        -24.0747063           23.4536878           -0.6210185
 Magnitude           :                                                    0.6960962

 ------------------------------------------------------------------------------------

*** tstop() called on d-19-15-2 at Sun Sep 17 19:52:49 2023
Module time:
	user time   =      54.90 seconds =       0.91 minutes
	system time =       0.30 seconds =       0.01 minutes
	total time  =         56 seconds =       0.93 minutes
Total time:
	user time   =   15111.19 seconds =     251.85 minutes
	system time =    7094.28 seconds =     118.24 minutes
	total time  =      25465 seconds =     424.42 minutes

    Psi4 stopped on: Sunday, 17 September 2023 07:52PM
    Psi4 wall time for execution: 0:00:56.72


    -----------------------------------------------------------------------
          Psi4: An Open-Source Ab Initio Electronic Structure Package
                               Psi4 1.7 release

                         Git: Rev {HEAD} 6ce35a5 


    D. G. A. Smith, L. A. Burns, A. C. Simmonett, R. M. Parrish,
    M. C. Schieber, R. Galvelis, P. Kraus, H. Kruse, R. Di Remigio,
    A. Alenaizan, A. M. James, S. Lehtola, J. P. Misiewicz, M. Scheurer,
    R. A. Shaw, J. B. Schriber, Y. Xie, Z. L. Glick, D. A. Sirianni,
    J. S. O'Brien, J. M. Waldrop, A. Kumar, E. G. Hohenstein,
    B. P. Pritchard, B. R. Brooks, H. F. Schaefer III, A. Yu. Sokolov,
    K. Patkowski, A. E. DePrince III, U. Bozkaya, R. A. King,
    F. A. Evangelista, J. M. Turney, T. D. Crawford, C. D. Sherrill,
    J. Chem. Phys. 152(18) 184108 (2020). https://doi.org/10.1063/5.0006002

                            Additional Code Authors
    E. T. Seidl, C. L. Janssen, E. F. Valeev, M. L. Leininger,
    J. F. Gonthier, R. M. Richard, H. R. McAlexander, M. Saitow, X. Wang,
    P. Verma, M. H. Lechner, A. Jiang, S. Behnle, A. G. Heide,
    M. F. Herbst, and D. L. Poole

             Previous Authors, Complete List of Code Contributors,
                       and Citations for Specific Modules
    https://github.com/psi4/psi4/blob/master/codemeta.json
    https://github.com/psi4/psi4/graphs/contributors
    http://psicode.org/psi4manual/master/introduction.html#citing-psifour

    -----------------------------------------------------------------------


    Psi4 started on: Sunday, 17 September 2023 12:48PM

    Process ID: 258105
    Host:       d-19-15-2
    PSIDATADIR: /home/gridsan/kfisher/.conda/envs/p4env/share/psi4
    Memory:     18.6 GiB
    Threads:    1
    
  ==> Input QCSchema <==

--------------------------------------------------------------------------
{'driver': 'energy',
 'extras': {'psiapi': True, 'wfn_qcvars_only': True},
 'id': None,
 'keywords': {'D_CONVERGENCE': 1e-10, 'E_CONVERGENCE': 1e-10, 'function_kwargs': {'dft_functional': 'scan-d3zero2b'}},
 'model': {'basis': 'aug-cc-pvtz', 'method': 'scf'},
 'molecule': {'atom_labels': ['', '', '', '', '', '', '', '', ''],
              'atomic_numbers': [1, 1, 8, 1, 1, 8, 1, 1, 8],
              'fix_com': True,
              'fix_orientation': True,
              'fix_symmetry': 'c1',
              'fragment_charges': [0.0, 0.0, 0.0],
              'fragment_multiplicities': [1, 1, 1],
              'fragments': [[0, 1, 2], [3, 4, 5], [6, 7, 8]],
              'geometry': [3.520742357066175, 4.789301483318165, 2.2580148122537818, 0.8280181405492271,
                           4.531448523574795, 0.8920520016391582, 1.7613829945924417, 4.421313848791257,
                           2.5379526232801517, -2.793960870174372, 6.943699588551293, 6.435018990497602,
                           -0.9635801763919524, 5.30409863351117, 4.817622128458996, -2.3945346368859344,
                           5.212941079808273, 6.003976599780885, -6.711341793240494, 0.9374720037015459,
                           3.7080240804694213, -4.903110390401952, 3.236378920837551, 3.948734370768439,
                           -6.06090756618032, 2.3950129076710263, 2.755140906680497],
              'mass_numbers': [1, 1, 16, 1, 1, 16, 1, 1, 16],
              'masses': [1.00782503223, 1.00782503223, 15.99491461957, 1.00782503223, 1.00782503223, 15.99491461957,
                         1.00782503223, 1.00782503223, 15.99491461957],
              'molecular_charge': 0.0,
              'molecular_multiplicity': 1,
              'name': 'H6O3',
              'provenance': {'creator': 'QCElemental',
                             'routine': 'qcelemental.molparse.from_string',
                             'version': 'v0.25.1'},
              'real': [False, False, False, True, True, True, False, False, False],
              'schema_name': 'qcschema_molecule',
              'schema_version': 2,
              'symbols': ['H', 'H', 'O', 'H', 'H', 'O', 'H', 'H', 'O'],
              'validated': True},
 'protocols': {'stdout': True},
 'provenance': {'creator': 'QCElemental', 'routine': 'qcelemental.models.results', 'version': 'v0.25.1'},
 'schema_name': 'qcschema_input',
 'schema_version': 1}
--------------------------------------------------------------------------

Scratch directory: /home/gridsan/kfisher/scratch/

*** tstart() called on d-19-15-2
*** at Sun Sep 17 19:52:49 2023

   => Loading Basis Set <=

    Name: AUG-CC-PVTZ
    Role: ORBITAL
    Keyword: BASIS
    atoms 1-2, 4-5, 7-8 entry H          line    40 file /home/gridsan/kfisher/.conda/envs/p4env/share/psi4/basis/aug-cc-pvtz.gbs 
    atoms 3, 6, 9       entry O          line   331 file /home/gridsan/kfisher/.conda/envs/p4env/share/psi4/basis/aug-cc-pvtz.gbs 

   => SCAN-D3: Empirical Dispersion <=

    Grimme's -D3 (zero-damping) Dispersion Correction
    Grimme S.; Antony J.; Ehrlich S.; Krieg H. (2010), J. Chem. Phys., 132: 154104
    Parametrisation from:    J.G. Brandenburg, J. E. Bates, J. Sun, J.P. Perdew, Phys. Rev. B 94, 115144, 2016

        s6 =       1.000000
        s8 =       0.000000
       sr6 =       1.324000
    alpha6 =      14.000000
       sr8 =       1.000000


         ---------------------------------------------------------
                                   SCF
               by Justin Turney, Rob Parrish, Andy Simmonett
                          and Daniel G. A. Smith
                              RKS Reference
                        1 Threads,  19073 MiB Core
         ---------------------------------------------------------

  ==> Geometry <==

    Molecular point group: c1
    Full point group: C1

    Geometry (in Bohr), charge = 0, multiplicity = 1:

       Center              X                  Y                   Z               Mass       
    ------------   -----------------  -----------------  -----------------  -----------------
      Gh(H)           3.520742357066     4.789301483318     2.258014812254     1.007825032230
      Gh(H)           0.828018140549     4.531448523575     0.892052001639     1.007825032230
      Gh(O)           1.761382994592     4.421313848791     2.537952623280    15.994914619570
         H           -2.793960870174     6.943699588551     6.435018990498     1.007825032230
         H           -0.963580176392     5.304098633511     4.817622128459     1.007825032230
         O           -2.394534636886     5.212941079808     6.003976599781    15.994914619570
      Gh(H)          -6.711341793240     0.937472003702     3.708024080469     1.007825032230
      Gh(H)          -4.903110390402     3.236378920838     3.948734370768     1.007825032230
      Gh(O)          -6.060907566180     2.395012907671     2.755140906680    15.994914619570

  Running in c1 symmetry.

  Rotational constants: A =      0.09945  B =      0.02849  C =      0.02256 [cm^-1]
  Rotational constants: A =   2981.32606  B =    853.96321  C =    676.39703 [MHz]
  Nuclear repulsion =    9.015489086052298

  Charge       = 0
  Multiplicity = 1
  Electrons    = 10
  Nalpha       = 5
  Nbeta        = 5

  ==> Algorithm <==

  SCF Algorithm Type is DF.
  DIIS enabled.
  MOM disabled.
  Fractional occupation disabled.
  Guess Type is SAD.
  Energy threshold   = 1.00e-10
  Density threshold  = 1.00e-10
  Integral threshold = 1.00e-12

  ==> Primary Basis <==

  Basis Set: AUG-CC-PVTZ
    Blend: AUG-CC-PVTZ
    Number of shells: 96
    Number of basis functions: 276
    Number of Cartesian functions: 315
    Spherical Harmonics?: true
    Max angular momentum: 3

  ==> DFT Potential <==

   => Composite Functional: SCAN-D3ZERO2B <= 

    SCAN Meta-GGA XC Functional
(10.1103/PhysRevLett.115.036402)
    J. Sun, A. Ruzsinszky, J. P. Perdew  Phys. Rev. Lett. 115, 036402, 2015


    Deriv               =              1
    GGA                 =           TRUE
    Meta                =           TRUE

    Exchange Hybrid     =          FALSE
    MP2 Hybrid          =          FALSE

   => Exchange Functionals <=

    1.0000   XC_MGGA_X_SCAN

   => Correlation Functionals <=

    1.0000   XC_MGGA_C_SCAN

   => LibXC Density Thresholds  <==

    XC_MGGA_C_SCAN:  1.00E-15 
    XC_MGGA_X_SCAN:  1.00E-15 

   => Molecular Quadrature <=

    Radial Scheme          =       TREUTLER
    Pruning Scheme         =           NONE
    Nuclear Scheme         =       TREUTLER

    Blocking Scheme        =         OCTREE
    BS radius alpha        =              1
    Pruning alpha          =              1
    Radial Points          =             75
    Spherical Points       =            302
    Total Points           =         197843
    Total Blocks           =           1490
    Max Points             =            256
    Max Functions          =            259
    Weights Tolerance      =       1.00E-15

   => Loading Basis Set <=

    Name: (AUG-CC-PVTZ AUX)
    Role: JKFIT
    Keyword: DF_BASIS_SCF
    atoms 1-2, 4-5, 7-8 entry H          line    70 file /home/gridsan/kfisher/.conda/envs/p4env/share/psi4/basis/aug-cc-pvtz-jkfit.gbs 
    atoms 3, 6, 9       entry O          line   286 file /home/gridsan/kfisher/.conda/envs/p4env/share/psi4/basis/aug-cc-pvtz-jkfit.gbs 

  ==> Integral Setup <==

  DFHelper Memory: AOs need 0.334 GiB; user supplied 11.006 GiB. Using in-core AOs.

  ==> MemDFJK: Density-Fitted J/K Matrices <==

    J tasked:                   Yes
    K tasked:                    No
    wK tasked:                   No
    OpenMP threads:               1
    Memory [MiB]:             11270
    Algorithm:                 Core
    Schwarz Cutoff:           1E-12
    Mask sparsity (%):       5.4453
    Fitting Condition:        1E-10

   => Auxiliary Basis Set <=

  Basis Set: (AUG-CC-PVTZ AUX)
    Blend: AUG-CC-PVTZ-JKFIT
    Number of shells: 174
    Number of basis functions: 588
    Number of Cartesian functions: 723
    Spherical Harmonics?: true
    Max angular momentum: 4

  Cached 100.0% of DFT collocation blocks in 2.964 [GiB].

  Minimum eigenvalue in the overlap matrix is 1.8370893870E-04.
  Reciprocal condition number of the overlap matrix is 1.7682537371E-05.
    Using symmetric orthogonalization.

  ==> Pre-Iterations <==

  SCF Guess: Superposition of Atomic Densities via on-the-fly atomic UHF (no occupation information).

   -------------------------
    Irrep   Nso     Nmo    
   -------------------------
     A        276     276 
   -------------------------
    Total     276     276
   -------------------------

  ==> Iterations <==

                           Total Energy        Delta E     RMS |[F,P]|

   @DF-RKS iter SAD:   -76.05557582331721   -7.60556e+01   0.00000e+00 
   @DF-RKS iter   1:   -76.24351212676684   -1.87936e-01   2.64157e-03 DIIS/ADIIS
   @DF-RKS iter   2:   -75.64298854731979    6.00524e-01   5.05698e-03 DIIS/ADIIS
   @DF-RKS iter   3:   -76.42887980751578   -7.85891e-01   2.28553e-04 DIIS/ADIIS
   @DF-RKS iter   4:   -76.43074679028024   -1.86698e-03   2.83819e-05 DIIS
   @DF-RKS iter   5:   -76.43076640713198   -1.96169e-05   8.05896e-06 DIIS
   @DF-RKS iter   6:   -76.43076809250149   -1.68537e-06   4.54501e-07 DIIS
   @DF-RKS iter   7:   -76.43076809731210   -4.81060e-09   1.24973e-07 DIIS
   @DF-RKS iter   8:   -76.43076809773245   -4.20357e-10   3.50262e-08 DIIS
   @DF-RKS iter   9:   -76.43076809777025   -3.78009e-11   2.24592e-09 DIIS
   @DF-RKS iter  10:   -76.43076809777055   -2.98428e-13   1.55685e-10 DIIS
   @DF-RKS iter  11:   -76.43076809777057   -1.42109e-14   1.86975e-11 DIIS
  Energy and wave function converged.


  ==> Post-Iterations <==

   Electrons on quadrature grid:
      Ntotal   =   10.0000085542 ; deviation = 8.554e-06 

    Orbital Energies [Eh]
    ---------------------

    Doubly Occupied:                                                      

       1A    -18.969903     2A     -0.974428     3A     -0.496779  
       4A     -0.354299     5A     -0.278185  

    Virtual:                                                              

       6A     -0.012245     7A      0.028798     8A      0.036586  
       9A      0.048343    10A      0.051555    11A      0.069650  
      12A      0.089784    13A      0.094502    14A      0.108911  
      15A      0.125649    16A      0.132342    17A      0.141701  
      18A      0.153155    19A      0.157568    20A      0.166765  
      21A      0.188443    22A      0.189710    23A      0.207241  
      24A      0.218819    25A      0.248637    26A      0.253387  
      27A      0.266115    28A      0.270870    29A      0.289331  
      30A      0.308232    31A      0.312086    32A      0.326232  
      33A      0.331702    34A      0.335711    35A      0.343198  
      36A      0.352890    37A      0.358305    38A      0.371223  
      39A      0.373469    40A      0.389318    41A      0.398681  
      42A      0.403860    43A      0.410477    44A      0.436105  
      45A      0.451395    46A      0.508617    47A      0.512115  
      48A      0.520550    49A      0.596517    50A      0.634384  
      51A      0.653521    52A      0.667593    53A      0.680766  
      54A      0.699975    55A      0.715503    56A      0.722281  
      57A      0.737620    58A      0.766548    59A      0.774661  
      60A      0.791777    61A      0.798197    62A      0.805684  
      63A      0.819886    64A      0.828326    65A      0.836721  
      66A      0.846445    67A      0.853648    68A      0.863412  
      69A      0.875302    70A      0.883003    71A      0.893370  
      72A      0.898070    73A      0.914164    74A      0.920857  
      75A      0.941712    76A      0.946906    77A      0.963814  
      78A      0.986185    79A      1.001165    80A      1.004791  
      81A      1.008267    82A      1.016487    83A      1.030305  
      84A      1.052816    85A      1.060577    86A      1.075605  
      87A      1.083590    88A      1.116226    89A      1.141674  
      90A      1.145337    91A      1.160784    92A      1.180538  
      93A      1.191769    94A      1.207829    95A      1.234114  
      96A      1.250665    97A      1.265101    98A      1.278575  
      99A      1.356086   100A      1.361430   101A      1.384397  
     102A      1.397918   103A      1.430892   104A      1.452982  
     105A      1.499849   106A      1.515809   107A      1.532900  
     108A      1.568836   109A      1.618085   110A      1.630475  
     111A      1.649076   112A      1.684664   113A      1.714827  
     114A      1.732219   115A      1.763782   116A      1.771903  
     117A      1.794709   118A      1.821320   119A      1.837128  
     120A      1.869964   121A      1.871552   122A      1.886330  
     123A      1.912979   124A      1.964400   125A      2.018331  
     126A      2.021586   127A      2.144117   128A      2.218482  
     129A      2.239732   130A      2.310509   131A      2.347523  
     132A      2.357852   133A      2.409459   134A      2.426707  
     135A      2.455407   136A      2.477220   137A      2.491151  
     138A      2.513397   139A      2.526866   140A      2.555792  
     141A      2.562650   142A      2.583014   143A      2.611125  
     144A      2.636905   145A      2.665821   146A      2.677003  
     147A      2.697314   148A      2.725864   149A      2.739521  
     150A      2.759599   151A      2.815340   152A      2.835723  
     153A      2.875170   154A      2.903647   155A      2.933034  
     156A      2.947526   157A      3.020846   158A      3.083428  
     159A      3.173684   160A      3.202955   161A      3.212194  
     162A      3.233983   163A      3.267743   164A      3.373624  
     165A      3.389354   166A      3.436953   167A      3.493190  
     168A      3.520389   169A      3.599300   170A      3.634615  
     171A      3.686243   172A      3.694693   173A      3.874932  
     174A      3.897594   175A      4.005598   176A      4.104228  
     177A      4.147411   178A      4.196163   179A      4.313870  
     180A      4.351059   181A      4.369156   182A      4.418550  
     183A      4.446334   184A      4.450427   185A      4.475444  
     186A      4.494353   187A      4.520489   188A      4.579240  
     189A      4.612887   190A      4.657058   191A      4.692473  
     192A      4.708299   193A      4.810192   194A      4.824536  
     195A      4.837841   196A      4.841628   197A      4.913201  
     198A      4.920126   199A      4.988826   200A      5.008451  
     201A      5.041525   202A      5.053742   203A      5.111109  
     204A      5.158121   205A      5.180109   206A      5.260770  
     207A      5.322513   208A      5.374460   209A      5.399921  
     210A      5.453681   211A      5.508617   212A      5.542763  
     213A      5.587060   214A      5.618958   215A      5.699176  
     216A      5.742827   217A      5.847780   218A      5.873282  
     219A      5.916429   220A      6.076945   221A      6.256438  
     222A      6.284540   223A      6.315369   224A      6.415085  
     225A      6.556878   226A      6.581238   227A      6.695715  
     228A      6.717312   229A      6.801341   230A      6.961237  
     231A      7.017015   232A      7.026947   233A      7.043854  
     234A      7.091392   235A      7.158492   236A      7.178082  
     237A      7.251670   238A      7.424703   239A      7.653188  
     240A      7.715807   241A      7.771059   242A      7.867861  
     243A      7.881582   244A      7.945271   245A      8.108561  
     246A      8.117713   247A      8.219762   248A      8.249583  
     249A      8.359676   250A      8.384140   251A      8.583497  
     252A      8.729935   253A      8.839724   254A      8.868016  
     255A      9.137972   256A      9.715265   257A      9.863095  
     258A      9.921381   259A      9.977804   260A     10.082410  
     261A     10.165556   262A     10.295270   263A     10.428409  
     264A     11.060271   265A     11.243640   266A     11.692833  
     267A     11.783021   268A     12.087486   269A     12.147860  
     270A     13.452386   271A     13.580237   272A     13.915524  
     273A     14.134450   274A     15.787550   275A     64.572578  
     276A     65.288186  

    Final Occupation by Irrep:
              A 
    DOCC [     5 ]
    NA   [     5 ]
    NB   [     5 ]

  @DF-RKS Final Energy:   -76.43076809777057

   => Energetics <=

    Nuclear Repulsion Energy =              9.0154890860522983
    One-Electron Energy =                -122.7400167154262647
    Two-Electron Energy =                  46.5761689682932598
    DFT Exchange-Correlation Energy =      -9.2824092866898464
    Empirical Dispersion Energy =          -0.0000001500000000
    VV10 Nonlocal Energy =                  0.0000000000000000
    Total Energy =                        -76.4307680977705530

Computation Completed


Properties will be evaluated at   0.000000,   0.000000,   0.000000 [a0]

Properties computed using the SCF density matrix


 Multipole Moments:

 ------------------------------------------------------------------------------------
     Multipole            Electronic (a.u.)      Nuclear  (a.u.)        Total (a.u.)
 ------------------------------------------------------------------------------------

 L = 1.  Multiply by 2.5417464519 to convert [e a0] to [Debye]
 Dipole X            :         23.2440542          -22.9138181            0.3302361
 Dipole Y            :        -53.3633970           53.9513269            0.5879299
 Dipole Z            :        -59.5256510           59.2844539           -0.2411970
 Magnitude           :                                                    0.7161658

 ------------------------------------------------------------------------------------

*** tstop() called on d-19-15-2 at Sun Sep 17 19:53:45 2023
Module time:
	user time   =      54.39 seconds =       0.91 minutes
	system time =       0.62 seconds =       0.01 minutes
	total time  =         56 seconds =       0.93 minutes
Total time:
	user time   =   15165.64 seconds =     252.76 minutes
	system time =    7094.90 seconds =     118.25 minutes
	total time  =      25521 seconds =     425.35 minutes

    Psi4 stopped on: Sunday, 17 September 2023 07:53PM
    Psi4 wall time for execution: 0:00:55.57


    -----------------------------------------------------------------------
          Psi4: An Open-Source Ab Initio Electronic Structure Package
                               Psi4 1.7 release

                         Git: Rev {HEAD} 6ce35a5 


    D. G. A. Smith, L. A. Burns, A. C. Simmonett, R. M. Parrish,
    M. C. Schieber, R. Galvelis, P. Kraus, H. Kruse, R. Di Remigio,
    A. Alenaizan, A. M. James, S. Lehtola, J. P. Misiewicz, M. Scheurer,
    R. A. Shaw, J. B. Schriber, Y. Xie, Z. L. Glick, D. A. Sirianni,
    J. S. O'Brien, J. M. Waldrop, A. Kumar, E. G. Hohenstein,
    B. P. Pritchard, B. R. Brooks, H. F. Schaefer III, A. Yu. Sokolov,
    K. Patkowski, A. E. DePrince III, U. Bozkaya, R. A. King,
    F. A. Evangelista, J. M. Turney, T. D. Crawford, C. D. Sherrill,
    J. Chem. Phys. 152(18) 184108 (2020). https://doi.org/10.1063/5.0006002

                            Additional Code Authors
    E. T. Seidl, C. L. Janssen, E. F. Valeev, M. L. Leininger,
    J. F. Gonthier, R. M. Richard, H. R. McAlexander, M. Saitow, X. Wang,
    P. Verma, M. H. Lechner, A. Jiang, S. Behnle, A. G. Heide,
    M. F. Herbst, and D. L. Poole

             Previous Authors, Complete List of Code Contributors,
                       and Citations for Specific Modules
    https://github.com/psi4/psi4/blob/master/codemeta.json
    https://github.com/psi4/psi4/graphs/contributors
    http://psicode.org/psi4manual/master/introduction.html#citing-psifour

    -----------------------------------------------------------------------


    Psi4 started on: Sunday, 17 September 2023 12:48PM

    Process ID: 258105
    Host:       d-19-15-2
    PSIDATADIR: /home/gridsan/kfisher/.conda/envs/p4env/share/psi4
    Memory:     18.6 GiB
    Threads:    1
    
  ==> Input QCSchema <==

--------------------------------------------------------------------------
{'driver': 'energy',
 'extras': {'psiapi': True, 'wfn_qcvars_only': True},
 'id': None,
 'keywords': {'D_CONVERGENCE': 1e-10, 'E_CONVERGENCE': 1e-10, 'function_kwargs': {'dft_functional': 'scan-d3zero2b'}},
 'model': {'basis': 'aug-cc-pvtz', 'method': 'scf'},
 'molecule': {'atom_labels': ['', '', '', '', '', '', '', '', ''],
              'atomic_numbers': [1, 1, 8, 1, 1, 8, 1, 1, 8],
              'fix_com': True,
              'fix_orientation': True,
              'fix_symmetry': 'c1',
              'fragment_charges': [0.0, 0.0, 0.0],
              'fragment_multiplicities': [1, 1, 1],
              'fragments': [[0, 1, 2], [3, 4, 5], [6, 7, 8]],
              'geometry': [3.520742357066175, 4.789301483318165, 2.2580148122537818, 0.8280181405492271,
                           4.531448523574795, 0.8920520016391582, 1.7613829945924417, 4.421313848791257,
                           2.5379526232801517, -2.793960870174372, 6.943699588551293, 6.435018990497602,
                           -0.9635801763919524, 5.30409863351117, 4.817622128458996, -2.3945346368859344,
                           5.212941079808273, 6.003976599780885, -6.711341793240494, 0.9374720037015459,
                           3.7080240804694213, -4.903110390401952, 3.236378920837551, 3.948734370768439,
                           -6.06090756618032, 2.3950129076710263, 2.755140906680497],
              'mass_numbers': [1, 1, 16, 1, 1, 16, 1, 1, 16],
              'masses': [1.00782503223, 1.00782503223, 15.99491461957, 1.00782503223, 1.00782503223, 15.99491461957,
                         1.00782503223, 1.00782503223, 15.99491461957],
              'molecular_charge': 0.0,
              'molecular_multiplicity': 1,
              'name': 'H6O3',
              'provenance': {'creator': 'QCElemental',
                             'routine': 'qcelemental.molparse.from_string',
                             'version': 'v0.25.1'},
              'real': [False, False, False, True, True, True, True, True, True],
              'schema_name': 'qcschema_molecule',
              'schema_version': 2,
              'symbols': ['H', 'H', 'O', 'H', 'H', 'O', 'H', 'H', 'O'],
              'validated': True},
 'protocols': {'stdout': True},
 'provenance': {'creator': 'QCElemental', 'routine': 'qcelemental.models.results', 'version': 'v0.25.1'},
 'schema_name': 'qcschema_input',
 'schema_version': 1}
--------------------------------------------------------------------------

Scratch directory: /home/gridsan/kfisher/scratch/

*** tstart() called on d-19-15-2
*** at Sun Sep 17 19:53:45 2023

   => Loading Basis Set <=

    Name: AUG-CC-PVTZ
    Role: ORBITAL
    Keyword: BASIS
    atoms 1-2, 4-5, 7-8 entry H          line    40 file /home/gridsan/kfisher/.conda/envs/p4env/share/psi4/basis/aug-cc-pvtz.gbs 
    atoms 3, 6, 9       entry O          line   331 file /home/gridsan/kfisher/.conda/envs/p4env/share/psi4/basis/aug-cc-pvtz.gbs 

   => SCAN-D3: Empirical Dispersion <=

    Grimme's -D3 (zero-damping) Dispersion Correction
    Grimme S.; Antony J.; Ehrlich S.; Krieg H. (2010), J. Chem. Phys., 132: 154104
    Parametrisation from:    J.G. Brandenburg, J. E. Bates, J. Sun, J.P. Perdew, Phys. Rev. B 94, 115144, 2016

        s6 =       1.000000
        s8 =       0.000000
       sr6 =       1.324000
    alpha6 =      14.000000
       sr8 =       1.000000


         ---------------------------------------------------------
                                   SCF
               by Justin Turney, Rob Parrish, Andy Simmonett
                          and Daniel G. A. Smith
                              RKS Reference
                        1 Threads,  19073 MiB Core
         ---------------------------------------------------------

  ==> Geometry <==

    Molecular point group: c1
    Full point group: C1

    Geometry (in Bohr), charge = 0, multiplicity = 1:

       Center              X                  Y                   Z               Mass       
    ------------   -----------------  -----------------  -----------------  -----------------
      Gh(H)           3.520742357066     4.789301483318     2.258014812254     1.007825032230
      Gh(H)           0.828018140549     4.531448523575     0.892052001639     1.007825032230
      Gh(O)           1.761382994592     4.421313848791     2.537952623280    15.994914619570
         H           -2.793960870174     6.943699588551     6.435018990498     1.007825032230
         H           -0.963580176392     5.304098633511     4.817622128459     1.007825032230
         O           -2.394534636886     5.212941079808     6.003976599781    15.994914619570
         H           -6.711341793240     0.937472003702     3.708024080469     1.007825032230
         H           -4.903110390402     3.236378920838     3.948734370768     1.007825032230
         O           -6.060907566180     2.395012907671     2.755140906680    15.994914619570

  Running in c1 symmetry.

  Rotational constants: A =      0.09945  B =      0.02849  C =      0.02256 [cm^-1]
  Rotational constants: A =   2981.32606  B =    853.96321  C =    676.39703 [MHz]
  Nuclear repulsion =   35.785698426447809

  Charge       = 0
  Multiplicity = 1
  Electrons    = 20
  Nalpha       = 10
  Nbeta        = 10

  ==> Algorithm <==

  SCF Algorithm Type is DF.
  DIIS enabled.
  MOM disabled.
  Fractional occupation disabled.
  Guess Type is SAD.
  Energy threshold   = 1.00e-10
  Density threshold  = 1.00e-10
  Integral threshold = 1.00e-12

  ==> Primary Basis <==

  Basis Set: AUG-CC-PVTZ
    Blend: AUG-CC-PVTZ
    Number of shells: 96
    Number of basis functions: 276
    Number of Cartesian functions: 315
    Spherical Harmonics?: true
    Max angular momentum: 3

  ==> DFT Potential <==

   => Composite Functional: SCAN-D3ZERO2B <= 

    SCAN Meta-GGA XC Functional
(10.1103/PhysRevLett.115.036402)
    J. Sun, A. Ruzsinszky, J. P. Perdew  Phys. Rev. Lett. 115, 036402, 2015


    Deriv               =              1
    GGA                 =           TRUE
    Meta                =           TRUE

    Exchange Hybrid     =          FALSE
    MP2 Hybrid          =          FALSE

   => Exchange Functionals <=

    1.0000   XC_MGGA_X_SCAN

   => Correlation Functionals <=

    1.0000   XC_MGGA_C_SCAN

   => LibXC Density Thresholds  <==

    XC_MGGA_C_SCAN:  1.00E-15 
    XC_MGGA_X_SCAN:  1.00E-15 

   => Molecular Quadrature <=

    Radial Scheme          =       TREUTLER
    Pruning Scheme         =           NONE
    Nuclear Scheme         =       TREUTLER

    Blocking Scheme        =         OCTREE
    BS radius alpha        =              1
    Pruning alpha          =              1
    Radial Points          =             75
    Spherical Points       =            302
    Total Points           =         197843
    Total Blocks           =           1490
    Max Points             =            256
    Max Functions          =            259
    Weights Tolerance      =       1.00E-15

   => Loading Basis Set <=

    Name: (AUG-CC-PVTZ AUX)
    Role: JKFIT
    Keyword: DF_BASIS_SCF
    atoms 1-2, 4-5, 7-8 entry H          line    70 file /home/gridsan/kfisher/.conda/envs/p4env/share/psi4/basis/aug-cc-pvtz-jkfit.gbs 
    atoms 3, 6, 9       entry O          line   286 file /home/gridsan/kfisher/.conda/envs/p4env/share/psi4/basis/aug-cc-pvtz-jkfit.gbs 

  ==> Integral Setup <==

  DFHelper Memory: AOs need 0.334 GiB; user supplied 11.006 GiB. Using in-core AOs.

  ==> MemDFJK: Density-Fitted J/K Matrices <==

    J tasked:                   Yes
    K tasked:                    No
    wK tasked:                   No
    OpenMP threads:               1
    Memory [MiB]:             11270
    Algorithm:                 Core
    Schwarz Cutoff:           1E-12
    Mask sparsity (%):       5.4453
    Fitting Condition:        1E-10

   => Auxiliary Basis Set <=

  Basis Set: (AUG-CC-PVTZ AUX)
    Blend: AUG-CC-PVTZ-JKFIT
    Number of shells: 174
    Number of basis functions: 588
    Number of Cartesian functions: 723
    Spherical Harmonics?: true
    Max angular momentum: 4

  Cached 100.0% of DFT collocation blocks in 2.964 [GiB].

  Minimum eigenvalue in the overlap matrix is 1.8370893870E-04.
  Reciprocal condition number of the overlap matrix is 1.7682537371E-05.
    Using symmetric orthogonalization.

  ==> Pre-Iterations <==

  SCF Guess: Superposition of Atomic Densities via on-the-fly atomic UHF (no occupation information).

   -------------------------
    Irrep   Nso     Nmo    
   -------------------------
     A        276     276 
   -------------------------
    Total     276     276
   -------------------------

  ==> Iterations <==

                           Total Energy        Delta E     RMS |[F,P]|

   @DF-RKS iter SAD:  -152.15113602494151   -1.52151e+02   0.00000e+00 
   @DF-RKS iter   1:  -152.51668970803368   -3.65554e-01   3.64405e-03 DIIS/ADIIS
   @DF-RKS iter   2:  -151.49793410002351    1.01876e+00   6.72107e-03 DIIS/ADIIS
   @DF-RKS iter   3:  -152.86631841237309   -1.36838e+00   3.24657e-04 DIIS/ADIIS
   @DF-RKS iter   4:  -152.86776752515121   -1.44911e-03   2.83235e-04 DIIS/ADIIS
   @DF-RKS iter   5:  -152.86981016880969   -2.04264e-03   4.12831e-05 DIIS
   @DF-RKS iter   6:  -152.86985437729180   -4.42085e-05   8.24990e-06 DIIS
   @DF-RKS iter   7:  -152.86985646195390   -2.08466e-06   1.00524e-06 DIIS
   @DF-RKS iter   8:  -152.86985648899878   -2.70449e-08   2.24120e-07 DIIS
   @DF-RKS iter   9:  -152.86985649041813   -1.41935e-09   3.32234e-08 DIIS
   @DF-RKS iter  10:  -152.86985649045303   -3.49019e-11   4.71374e-09 DIIS
   @DF-RKS iter  11:  -152.86985649045337   -3.41061e-13   1.01980e-09 DIIS
   @DF-RKS iter  12:  -152.86985649045354   -1.70530e-13   1.18304e-10 DIIS
   @DF-RKS iter  13:  -152.86985649045309    4.54747e-13   2.90846e-11 DIIS
  Energy and wave function converged.


  ==> Post-Iterations <==

   Electrons on quadrature grid:
      Ntotal   =   20.0000030381 ; deviation = 3.038e-06 

    Orbital Energies [Eh]
    ---------------------

    Doubly Occupied:                                                      

       1A    -18.995860     2A    -18.944166     3A     -1.000971  
       4A     -0.945324     5A     -0.521505     6A     -0.466626  
       7A     -0.384185     8A     -0.332644     9A     -0.303012  
      10A     -0.254261  

    Virtual:                                                              

      11A     -0.024266    12A      0.016018    13A      0.025113  
      14A      0.045054    15A      0.047032    16A      0.064334  
      17A      0.081788    18A      0.091257    19A      0.099080  
      20A      0.104031    21A      0.118762    22A      0.136672  
      23A      0.142273    24A      0.153694    25A      0.162558  
      26A      0.176541    27A      0.177858    28A      0.185105  
      29A      0.200291    30A      0.203927    31A      0.219526  
      32A      0.243588    33A      0.254356    34A      0.267135  
      35A      0.275599    36A      0.287098    37A      0.298180  
      38A      0.303305    39A      0.321665    40A      0.325248  
      41A      0.338477    42A      0.346428    43A      0.353294  
      44A      0.360238    45A      0.366034    46A      0.375592  
      47A      0.385443    48A      0.387629    49A      0.403935  
      50A      0.435369    51A      0.480201    52A      0.491574  
      53A      0.507076    54A      0.530621    55A      0.583193  
      56A      0.603013    57A      0.605644    58A      0.627949  
      59A      0.647300    60A      0.654955    61A      0.659272  
      62A      0.696654    63A      0.703296    64A      0.714167  
      65A      0.729709    66A      0.759526    67A      0.770911  
      68A      0.780296    69A      0.788433    70A      0.803287  
      71A      0.813875    72A      0.822250    73A      0.840548  
      74A      0.844356    75A      0.855944    76A      0.863005  
      77A      0.866533    78A      0.875825    79A      0.889560  
      80A      0.909141    81A      0.913815    82A      0.930618  
      83A      0.932309    84A      0.950823    85A      0.967099  
      86A      0.969911    87A      0.986185    88A      1.000081  
      89A      1.022014    90A      1.034366    91A      1.053619  
      92A      1.072400    93A      1.087109    94A      1.099044  
      95A      1.117834    96A      1.129415    97A      1.141653  
      98A      1.156358    99A      1.164332   100A      1.178647  
     101A      1.202358   102A      1.207855   103A      1.223624  
     104A      1.256011   105A      1.313031   106A      1.328727  
     107A      1.355403   108A      1.362061   109A      1.399424  
     110A      1.431304   111A      1.433119   112A      1.446701  
     113A      1.484886   114A      1.507301   115A      1.534898  
     116A      1.546550   117A      1.588139   118A      1.603621  
     119A      1.624490   120A      1.690119   121A      1.716687  
     122A      1.756723   123A      1.788100   124A      1.813116  
     125A      1.831064   126A      1.833405   127A      1.855905  
     128A      1.868917   129A      1.939426   130A      1.954134  
     131A      1.993477   132A      2.078863   133A      2.107188  
     134A      2.137892   135A      2.187456   136A      2.227311  
     137A      2.248574   138A      2.263511   139A      2.296922  
     140A      2.319699   141A      2.341904   142A      2.346711  
     143A      2.361874   144A      2.385415   145A      2.441804  
     146A      2.468935   147A      2.488604   148A      2.520274  
     149A      2.552807   150A      2.570401   151A      2.587783  
     152A      2.594882   153A      2.643780   154A      2.667524  
     155A      2.691473   156A      2.715904   157A      2.721528  
     158A      2.753063   159A      2.778990   160A      2.803174  
     161A      2.812025   162A      2.843141   163A      2.857158  
     164A      2.909872   165A      2.931498   166A      3.068152  
     167A      3.168541   168A      3.226169   169A      3.257455  
     170A      3.365084   171A      3.424029   172A      3.507674  
     173A      3.592312   174A      3.646664   175A      3.675864  
     176A      3.823179   177A      3.841624   178A      3.879037  
     179A      3.938936   180A      4.009821   181A      4.056489  
     182A      4.084213   183A      4.107222   184A      4.144237  
     185A      4.170371   186A      4.205796   187A      4.266066  
     188A      4.276532   189A      4.300714   190A      4.319896  
     191A      4.330636   192A      4.354345   193A      4.377854  
     194A      4.409631   195A      4.435423   196A      4.474458  
     197A      4.476835   198A      4.560222   199A      4.588201  
     200A      4.597244   201A      4.629588   202A      4.700099  
     203A      4.774557   204A      4.801137   205A      4.820704  
     206A      4.914865   207A      4.949589   208A      4.992511  
     209A      5.005054   210A      5.036377   211A      5.062620  
     212A      5.092466   213A      5.115496   214A      5.144125  
     215A      5.160452   216A      5.171539   217A      5.265752  
     218A      5.290740   219A      5.379491   220A      5.447527  
     221A      5.497505   222A      5.519298   223A      5.593479  
     224A      5.735874   225A      5.864717   226A      5.956532  
     227A      6.103721   228A      6.273554   229A      6.280553  
     230A      6.289698   231A      6.297162   232A      6.496970  
     233A      6.517816   234A      6.639109   235A      6.665816  
     236A      6.714465   237A      6.848143   238A      6.897567  
     239A      6.928307   240A      6.961759   241A      6.992550  
     242A      6.999993   243A      7.005681   244A      7.054378  
     245A      7.068041   246A      7.084994   247A      7.105996  
     248A      7.146853   249A      7.199369   250A      7.327745  
     251A      7.402775   252A      7.624889   253A      7.660597  
     254A      7.689538   255A      7.713058   256A      7.855075  
     257A      7.931886   258A      8.104025   259A      8.205280  
     260A      8.364283   261A      8.464003   262A      8.564701  
     263A      8.717777   264A      8.850233   265A      9.848162  
     266A      9.964411   267A     10.064756   268A     10.277499  
     269A     11.044350   270A     11.677606   271A     12.128580  
     272A     13.435597   273A     13.894554   274A     15.039293  
     275A     15.964199   276A     64.491727  

    Final Occupation by Irrep:
              A 
    DOCC [    10 ]
    NA   [    10 ]
    NB   [    10 ]

  @DF-RKS Final Energy:  -152.86985649045309

   => Energetics <=

    Nuclear Repulsion Energy =             35.7856984264478086
    One-Electron Energy =                -281.0020568583715317
    Two-Electron Energy =                 110.9139573658889759
    DFT Exchange-Correlation Energy =     -18.5672521844183578
    Empirical Dispersion Energy =          -0.0002032400000000
    VV10 Nonlocal Energy =                  0.0000000000000000
    Total Energy =                       -152.8698564904530883

Computation Completed


Properties will be evaluated at   0.000000,   0.000000,   0.000000 [a0]

Properties computed using the SCF density matrix


 Multipole Moments:

 ------------------------------------------------------------------------------------
     Multipole            Electronic (a.u.)      Nuclear  (a.u.)        Total (a.u.)
 ------------------------------------------------------------------------------------

 L = 1.  Multiply by 2.5417464519 to convert [e a0] to [Debye]
 Dipole X            :         83.6652357          -83.0155309            0.6497049
 Dipole Y            :        -76.7490390           77.2852810            0.5362421
 Dipole Z            :        -88.4167239           88.9823396            0.5656157
 Magnitude           :                                                    1.0146887

 ------------------------------------------------------------------------------------

*** tstop() called on d-19-15-2 at Sun Sep 17 19:54:49 2023
Module time:
	user time   =      62.92 seconds =       1.05 minutes
	system time =       0.31 seconds =       0.01 minutes
	total time  =         64 seconds =       1.07 minutes
Total time:
	user time   =   15228.62 seconds =     253.81 minutes
	system time =    7095.21 seconds =     118.25 minutes
	total time  =      25585 seconds =     426.42 minutes

    Psi4 stopped on: Sunday, 17 September 2023 07:54PM
    Psi4 wall time for execution: 0:01:03.49


    -----------------------------------------------------------------------
          Psi4: An Open-Source Ab Initio Electronic Structure Package
                               Psi4 1.7 release

                         Git: Rev {HEAD} 6ce35a5 


    D. G. A. Smith, L. A. Burns, A. C. Simmonett, R. M. Parrish,
    M. C. Schieber, R. Galvelis, P. Kraus, H. Kruse, R. Di Remigio,
    A. Alenaizan, A. M. James, S. Lehtola, J. P. Misiewicz, M. Scheurer,
    R. A. Shaw, J. B. Schriber, Y. Xie, Z. L. Glick, D. A. Sirianni,
    J. S. O'Brien, J. M. Waldrop, A. Kumar, E. G. Hohenstein,
    B. P. Pritchard, B. R. Brooks, H. F. Schaefer III, A. Yu. Sokolov,
    K. Patkowski, A. E. DePrince III, U. Bozkaya, R. A. King,
    F. A. Evangelista, J. M. Turney, T. D. Crawford, C. D. Sherrill,
    J. Chem. Phys. 152(18) 184108 (2020). https://doi.org/10.1063/5.0006002

                            Additional Code Authors
    E. T. Seidl, C. L. Janssen, E. F. Valeev, M. L. Leininger,
    J. F. Gonthier, R. M. Richard, H. R. McAlexander, M. Saitow, X. Wang,
    P. Verma, M. H. Lechner, A. Jiang, S. Behnle, A. G. Heide,
    M. F. Herbst, and D. L. Poole

             Previous Authors, Complete List of Code Contributors,
                       and Citations for Specific Modules
    https://github.com/psi4/psi4/blob/master/codemeta.json
    https://github.com/psi4/psi4/graphs/contributors
    http://psicode.org/psi4manual/master/introduction.html#citing-psifour

    -----------------------------------------------------------------------


    Psi4 started on: Sunday, 17 September 2023 12:48PM

    Process ID: 258105
    Host:       d-19-15-2
    PSIDATADIR: /home/gridsan/kfisher/.conda/envs/p4env/share/psi4
    Memory:     18.6 GiB
    Threads:    1
    
  ==> Input QCSchema <==

--------------------------------------------------------------------------
{'driver': 'energy',
 'extras': {'psiapi': True, 'wfn_qcvars_only': True},
 'id': None,
 'keywords': {'D_CONVERGENCE': 1e-10, 'E_CONVERGENCE': 1e-10, 'function_kwargs': {'dft_functional': 'scan-d3zero2b'}},
 'model': {'basis': 'aug-cc-pvtz', 'method': 'scf'},
 'molecule': {'atom_labels': ['', '', '', '', '', '', '', '', ''],
              'atomic_numbers': [1, 1, 8, 1, 1, 8, 1, 1, 8],
              'fix_com': True,
              'fix_orientation': True,
              'fix_symmetry': 'c1',
              'fragment_charges': [0.0, 0.0, 0.0],
              'fragment_multiplicities': [1, 1, 1],
              'fragments': [[0, 1, 2], [3, 4, 5], [6, 7, 8]],
              'geometry': [3.520742357066175, 4.789301483318165, 2.2580148122537818, 0.8280181405492271,
                           4.531448523574795, 0.8920520016391582, 1.7613829945924417, 4.421313848791257,
                           2.5379526232801517, -2.793960870174372, 6.943699588551293, 6.435018990497602,
                           -0.9635801763919524, 5.30409863351117, 4.817622128458996, -2.3945346368859344,
                           5.212941079808273, 6.003976599780885, -6.711341793240494, 0.9374720037015459,
                           3.7080240804694213, -4.903110390401952, 3.236378920837551, 3.948734370768439,
                           -6.06090756618032, 2.3950129076710263, 2.755140906680497],
              'mass_numbers': [1, 1, 16, 1, 1, 16, 1, 1, 16],
              'masses': [1.00782503223, 1.00782503223, 15.99491461957, 1.00782503223, 1.00782503223, 15.99491461957,
                         1.00782503223, 1.00782503223, 15.99491461957],
              'molecular_charge': 0.0,
              'molecular_multiplicity': 1,
              'name': 'H6O3',
              'provenance': {'creator': 'QCElemental',
                             'routine': 'qcelemental.molparse.from_string',
                             'version': 'v0.25.1'},
              'real': [True, True, True, False, False, False, True, True, True],
              'schema_name': 'qcschema_molecule',
              'schema_version': 2,
              'symbols': ['H', 'H', 'O', 'H', 'H', 'O', 'H', 'H', 'O'],
              'validated': True},
 'protocols': {'stdout': True},
 'provenance': {'creator': 'QCElemental', 'routine': 'qcelemental.models.results', 'version': 'v0.25.1'},
 'schema_name': 'qcschema_input',
 'schema_version': 1}
--------------------------------------------------------------------------

Scratch directory: /home/gridsan/kfisher/scratch/

*** tstart() called on d-19-15-2
*** at Sun Sep 17 19:54:49 2023

   => Loading Basis Set <=

    Name: AUG-CC-PVTZ
    Role: ORBITAL
    Keyword: BASIS
    atoms 1-2, 4-5, 7-8 entry H          line    40 file /home/gridsan/kfisher/.conda/envs/p4env/share/psi4/basis/aug-cc-pvtz.gbs 
    atoms 3, 6, 9       entry O          line   331 file /home/gridsan/kfisher/.conda/envs/p4env/share/psi4/basis/aug-cc-pvtz.gbs 

   => SCAN-D3: Empirical Dispersion <=

    Grimme's -D3 (zero-damping) Dispersion Correction
    Grimme S.; Antony J.; Ehrlich S.; Krieg H. (2010), J. Chem. Phys., 132: 154104
    Parametrisation from:    J.G. Brandenburg, J. E. Bates, J. Sun, J.P. Perdew, Phys. Rev. B 94, 115144, 2016

        s6 =       1.000000
        s8 =       0.000000
       sr6 =       1.324000
    alpha6 =      14.000000
       sr8 =       1.000000


         ---------------------------------------------------------
                                   SCF
               by Justin Turney, Rob Parrish, Andy Simmonett
                          and Daniel G. A. Smith
                              RKS Reference
                        1 Threads,  19073 MiB Core
         ---------------------------------------------------------

  ==> Geometry <==

    Molecular point group: c1
    Full point group: C1

    Geometry (in Bohr), charge = 0, multiplicity = 1:

       Center              X                  Y                   Z               Mass       
    ------------   -----------------  -----------------  -----------------  -----------------
         H            3.520742357066     4.789301483318     2.258014812254     1.007825032230
         H            0.828018140549     4.531448523575     0.892052001639     1.007825032230
         O            1.761382994592     4.421313848791     2.537952623280    15.994914619570
      Gh(H)          -2.793960870174     6.943699588551     6.435018990498     1.007825032230
      Gh(H)          -0.963580176392     5.304098633511     4.817622128459     1.007825032230
      Gh(O)          -2.394534636886     5.212941079808     6.003976599781    15.994914619570
         H           -6.711341793240     0.937472003702     3.708024080469     1.007825032230
         H           -4.903110390402     3.236378920838     3.948734370768     1.007825032230
         O           -6.060907566180     2.395012907671     2.755140906680    15.994914619570

  Running in c1 symmetry.

  Rotational constants: A =      0.09945  B =      0.02849  C =      0.02256 [cm^-1]
  Rotational constants: A =   2981.32606  B =    853.96321  C =    676.39703 [MHz]
  Nuclear repulsion =   30.179039103911382

  Charge       = 0
  Multiplicity = 1
  Electrons    = 20
  Nalpha       = 10
  Nbeta        = 10

  ==> Algorithm <==

  SCF Algorithm Type is DF.
  DIIS enabled.
  MOM disabled.
  Fractional occupation disabled.
  Guess Type is SAD.
  Energy threshold   = 1.00e-10
  Density threshold  = 1.00e-10
  Integral threshold = 1.00e-12

  ==> Primary Basis <==

  Basis Set: AUG-CC-PVTZ
    Blend: AUG-CC-PVTZ
    Number of shells: 96
    Number of basis functions: 276
    Number of Cartesian functions: 315
    Spherical Harmonics?: true
    Max angular momentum: 3

  ==> DFT Potential <==

   => Composite Functional: SCAN-D3ZERO2B <= 

    SCAN Meta-GGA XC Functional
(10.1103/PhysRevLett.115.036402)
    J. Sun, A. Ruzsinszky, J. P. Perdew  Phys. Rev. Lett. 115, 036402, 2015


    Deriv               =              1
    GGA                 =           TRUE
    Meta                =           TRUE

    Exchange Hybrid     =          FALSE
    MP2 Hybrid          =          FALSE

   => Exchange Functionals <=

    1.0000   XC_MGGA_X_SCAN

   => Correlation Functionals <=

    1.0000   XC_MGGA_C_SCAN

   => LibXC Density Thresholds  <==

    XC_MGGA_C_SCAN:  1.00E-15 
    XC_MGGA_X_SCAN:  1.00E-15 

   => Molecular Quadrature <=

    Radial Scheme          =       TREUTLER
    Pruning Scheme         =           NONE
    Nuclear Scheme         =       TREUTLER

    Blocking Scheme        =         OCTREE
    BS radius alpha        =              1
    Pruning alpha          =              1
    Radial Points          =             75
    Spherical Points       =            302
    Total Points           =         197843
    Total Blocks           =           1490
    Max Points             =            256
    Max Functions          =            259
    Weights Tolerance      =       1.00E-15

   => Loading Basis Set <=

    Name: (AUG-CC-PVTZ AUX)
    Role: JKFIT
    Keyword: DF_BASIS_SCF
    atoms 1-2, 4-5, 7-8 entry H          line    70 file /home/gridsan/kfisher/.conda/envs/p4env/share/psi4/basis/aug-cc-pvtz-jkfit.gbs 
    atoms 3, 6, 9       entry O          line   286 file /home/gridsan/kfisher/.conda/envs/p4env/share/psi4/basis/aug-cc-pvtz-jkfit.gbs 

  ==> Integral Setup <==

  DFHelper Memory: AOs need 0.334 GiB; user supplied 11.006 GiB. Using in-core AOs.

  ==> MemDFJK: Density-Fitted J/K Matrices <==

    J tasked:                   Yes
    K tasked:                    No
    wK tasked:                   No
    OpenMP threads:               1
    Memory [MiB]:             11270
    Algorithm:                 Core
    Schwarz Cutoff:           1E-12
    Mask sparsity (%):       5.4453
    Fitting Condition:        1E-10

   => Auxiliary Basis Set <=

  Basis Set: (AUG-CC-PVTZ AUX)
    Blend: AUG-CC-PVTZ-JKFIT
    Number of shells: 174
    Number of basis functions: 588
    Number of Cartesian functions: 723
    Spherical Harmonics?: true
    Max angular momentum: 4

  Cached 100.0% of DFT collocation blocks in 2.964 [GiB].

  Minimum eigenvalue in the overlap matrix is 1.8370893870E-04.
  Reciprocal condition number of the overlap matrix is 1.7682537371E-05.
    Using symmetric orthogonalization.

  ==> Pre-Iterations <==

  SCF Guess: Superposition of Atomic Densities via on-the-fly atomic UHF (no occupation information).

   -------------------------
    Irrep   Nso     Nmo    
   -------------------------
     A        276     276 
   -------------------------
    Total     276     276
   -------------------------

  ==> Iterations <==

                           Total Energy        Delta E     RMS |[F,P]|

   @DF-RKS iter SAD:  -152.10417545272620   -1.52104e+02   0.00000e+00 
   @DF-RKS iter   1:  -152.48927863635146   -3.85103e-01   3.71920e-03 DIIS/ADIIS
   @DF-RKS iter   2:  -151.31525721605752    1.17402e+00   7.09121e-03 DIIS/ADIIS
   @DF-RKS iter   3:  -152.85833724768352   -1.54308e+00   2.79932e-04 DIIS/ADIIS
   @DF-RKS iter   4:  -152.86116511428165   -2.82787e-03   3.77644e-05 DIIS
   @DF-RKS iter   5:  -152.86119244051883   -2.73262e-05   1.94064e-05 DIIS
   @DF-RKS iter   6:  -152.86119795929167   -5.51877e-06   1.30194e-05 DIIS
   @DF-RKS iter   7:  -152.86120237091100   -4.41162e-06   7.85501e-07 DIIS
   @DF-RKS iter   8:  -152.86120238659029   -1.56793e-08   1.74026e-07 DIIS
   @DF-RKS iter   9:  -152.86120238751496   -9.24672e-10   3.74768e-08 DIIS
   @DF-RKS iter  10:  -152.86120238755731   -4.23483e-11   1.85718e-09 DIIS
   @DF-RKS iter  11:  -152.86120238755777   -4.54747e-13   5.59633e-10 DIIS
   @DF-RKS iter  12:  -152.86120238755726    5.11591e-13   8.29733e-11 DIIS
  Energy and wave function converged.


  ==> Post-Iterations <==

   Electrons on quadrature grid:
      Ntotal   =   19.9999946773 ; deviation = -5.323e-06 

    Orbital Energies [Eh]
    ---------------------

    Doubly Occupied:                                                      

       1A    -18.971145     2A    -18.968411     3A     -0.971285  
       4A     -0.968131     5A     -0.501678     6A     -0.486839  
       7A     -0.353697     8A     -0.349402     9A     -0.278665  
      10A     -0.274381  

    Virtual:                                                              

      11A     -0.018579    12A      0.000477    13A      0.034347  
      14A      0.036476    15A      0.053352    16A      0.062520  
      17A      0.085328    18A      0.093129    19A      0.095256  
      20A      0.111164    21A      0.118381    22A      0.123528  
      23A      0.145019    24A      0.146220    25A      0.159927  
      26A      0.168677    27A      0.177829    28A      0.183739  
      29A      0.199021    30A      0.213182    31A      0.226567  
      32A      0.242524    33A      0.246823    34A      0.252363  
      35A      0.275126    36A      0.280160    37A      0.303185  
      38A      0.311898    39A      0.321614    40A      0.338223  
      41A      0.341131    42A      0.349760    43A      0.354282  
      44A      0.361776    45A      0.375734    46A      0.380106  
      47A      0.400613    48A      0.408449    49A      0.416684  
      50A      0.441425    51A      0.478276    52A      0.499320  
      53A      0.519939    54A      0.550842    55A      0.569417  
      56A      0.598129    57A      0.609487    58A      0.621957  
      59A      0.635146    60A      0.644867    61A      0.664831  
      62A      0.684919    63A      0.692335    64A      0.707333  
      65A      0.749668    66A      0.765406    67A      0.770706  
      68A      0.782448    69A      0.795929    70A      0.800147  
      71A      0.820025    72A      0.828382    73A      0.845527  
      74A      0.854788    75A      0.861491    76A      0.870386  
      77A      0.881975    78A      0.894536    79A      0.897774  
      80A      0.902008    81A      0.918086    82A      0.921638  
      83A      0.933463    84A      0.951989    85A      0.965209  
      86A      0.968833    87A      0.984217    88A      1.019953  
      89A      1.023253    90A      1.039337    91A      1.074292  
      92A      1.078157    93A      1.088931    94A      1.100777  
      95A      1.127920    96A      1.136447    97A      1.152045  
      98A      1.157735    99A      1.173407   100A      1.180775  
     101A      1.208016   102A      1.223528   103A      1.260173  
     104A      1.282063   105A      1.329041   106A      1.353280  
     107A      1.373429   108A      1.392570   109A      1.414902  
     110A      1.450798   111A      1.456282   112A      1.475990  
     113A      1.500541   114A      1.517018   115A      1.537169  
     116A      1.585975   117A      1.608910   118A      1.624523  
     119A      1.674881   120A      1.702945   121A      1.740033  
     122A      1.750130   123A      1.788453   124A      1.812680  
     125A      1.824207   126A      1.847268   127A      1.889203  
     128A      1.896323   129A      1.942479   130A      2.000925  
     131A      2.021070   132A      2.083219   133A      2.123033  
     134A      2.145433   135A      2.190563   136A      2.217312  
     137A      2.242852   138A      2.251212   139A      2.263563  
     140A      2.293566   141A      2.314419   142A      2.340294  
     143A      2.358498   144A      2.382310   145A      2.409931  
     146A      2.459680   147A      2.533776   148A      2.538712  
     149A      2.560411   150A      2.572846   151A      2.589731  
     152A      2.610736   153A      2.624096   154A      2.630140  
     155A      2.665292   156A      2.697424   157A      2.716959  
     158A      2.767172   159A      2.776575   160A      2.822785  
     161A      2.842614   162A      2.866693   163A      2.901936  
     164A      2.939312   165A      3.059518   166A      3.138646  
     167A      3.215307   168A      3.288113   169A      3.429145  
     170A      3.452007   171A      3.474333   172A      3.497947  
     173A      3.550386   174A      3.618882   175A      3.731321  
     176A      3.805938   177A      3.853743   178A      3.869463  
     179A      3.890580   180A      3.939409   181A      3.994790  
     182A      4.083639   183A      4.123340   184A      4.134579  
     185A      4.168798   186A      4.198831   187A      4.251891  
     188A      4.271869   189A      4.287081   190A      4.301504  
     191A      4.326387   192A      4.377606   193A      4.396896  
     194A      4.430184   195A      4.447394   196A      4.459698  
     197A      4.486710   198A      4.530121   199A      4.576035  
     200A      4.662161   201A      4.706291   202A      4.711438  
     203A      4.750486   204A      4.821492   205A      4.966242  
     206A      4.967070   207A      4.980526   208A      5.028886  
     209A      5.065061   210A      5.081640   211A      5.130969  
     212A      5.147378   213A      5.160481   214A      5.205139  
     215A      5.254618   216A      5.296961   217A      5.320392  
     218A      5.342680   219A      5.488954   220A      5.533600  
     221A      5.574801   222A      5.676890   223A      5.707052  
     224A      5.774692   225A      5.853641   226A      5.949090  
     227A      6.002104   228A      6.279052   229A      6.323347  
     230A      6.366498   231A      6.472641   232A      6.499099  
     233A      6.613462   234A      6.628608   235A      6.700293  
     236A      6.717865   237A      6.844646   238A      6.881136  
     239A      6.886720   240A      6.932329   241A      6.964142  
     242A      6.993243   243A      7.010447   244A      7.036367  
     245A      7.039115   246A      7.059310   247A      7.107344  
     248A      7.130884   249A      7.175972   250A      7.331256  
     251A      7.410024   252A      7.601053   253A      7.612052  
     254A      7.637699   255A      7.656860   256A      7.825555  
     257A      7.898310   258A      8.146602   259A      8.195138  
     260A      8.308328   261A      8.407969   262A      8.465159  
     263A      8.817458   264A      8.966132   265A      9.777667  
     266A      9.994675   267A     10.108979   268A     10.312782  
     269A     11.173705   270A     11.895384   271A     12.212545  
     272A     13.574312   273A     14.003410   274A     14.953410  
     275A     15.296795   276A     66.048667  

    Final Occupation by Irrep:
              A 
    DOCC [    10 ]
    NA   [    10 ]
    NB   [    10 ]

  @DF-RKS Final Energy:  -152.86120238755726

   => Energetics <=

    Nuclear Repulsion Energy =             30.1790391039113821
    One-Electron Energy =                -269.8319202423815568
    Two-Electron Energy =                 105.3415643993122046
    DFT Exchange-Correlation Energy =     -18.5497262383992876
    Empirical Dispersion Energy =          -0.0001594100000000
    VV10 Nonlocal Energy =                  0.0000000000000000
    Total Energy =                       -152.8612023875572561

Computation Completed


Properties will be evaluated at   0.000000,   0.000000,   0.000000 [a0]

[...]
    DFT Exchange-Correlation Energy =      -9.2823544096556816
    Empirical Dispersion Energy =          -0.0000001500000000
    VV10 Nonlocal Energy =                  0.0000000000000000
    Total Energy =                        -76.4307390857414930

Computation Completed


Properties will be evaluated at   0.000000,   0.000000,   0.000000 [a0]

Properties computed using the SCF density matrix


 Multipole Moments:

 ------------------------------------------------------------------------------------
     Multipole            Electronic (a.u.)      Nuclear  (a.u.)        Total (a.u.)
 ------------------------------------------------------------------------------------

 L = 1.  Multiply by 2.5417464519 to convert [e a0] to [Debye]
 Dipole X            :         23.2438811          -22.9138181            0.3300630
 Dipole Y            :        -53.3633757           53.9513269            0.5879512
 Dipole Z            :        -59.5255076           59.2844539           -0.2410537
 Magnitude           :                                                    0.7160552

 ------------------------------------------------------------------------------------

*** tstop() called on d-19-15-2 at Sun Sep 17 20:01:51 2023
Module time:
	user time   =      22.24 seconds =       0.37 minutes
	system time =       0.06 seconds =       0.00 minutes
	total time  =         22 seconds =       0.37 minutes
Total time:
	user time   =   15646.64 seconds =     260.78 minutes
	system time =    7097.49 seconds =     118.29 minutes
	total time  =      26007 seconds =     433.45 minutes

    Psi4 stopped on: Sunday, 17 September 2023 08:01PM
    Psi4 wall time for execution: 0:00:22.46


    -----------------------------------------------------------------------
          Psi4: An Open-Source Ab Initio Electronic Structure Package
                               Psi4 1.7 release

                         Git: Rev {HEAD} 6ce35a5 


    D. G. A. Smith, L. A. Burns, A. C. Simmonett, R. M. Parrish,
    M. C. Schieber, R. Galvelis, P. Kraus, H. Kruse, R. Di Remigio,
    A. Alenaizan, A. M. James, S. Lehtola, J. P. Misiewicz, M. Scheurer,
    R. A. Shaw, J. B. Schriber, Y. Xie, Z. L. Glick, D. A. Sirianni,
    J. S. O'Brien, J. M. Waldrop, A. Kumar, E. G. Hohenstein,
    B. P. Pritchard, B. R. Brooks, H. F. Schaefer III, A. Yu. Sokolov,
    K. Patkowski, A. E. DePrince III, U. Bozkaya, R. A. King,
    F. A. Evangelista, J. M. Turney, T. D. Crawford, C. D. Sherrill,
    J. Chem. Phys. 152(18) 184108 (2020). https://doi.org/10.1063/5.0006002

                            Additional Code Authors
    E. T. Seidl, C. L. Janssen, E. F. Valeev, M. L. Leininger,
    J. F. Gonthier, R. M. Richard, H. R. McAlexander, M. Saitow, X. Wang,
    P. Verma, M. H. Lechner, A. Jiang, S. Behnle, A. G. Heide,
    M. F. Herbst, and D. L. Poole

             Previous Authors, Complete List of Code Contributors,
                       and Citations for Specific Modules
    https://github.com/psi4/psi4/blob/master/codemeta.json
    https://github.com/psi4/psi4/graphs/contributors
    http://psicode.org/psi4manual/master/introduction.html#citing-psifour

    -----------------------------------------------------------------------


    Psi4 started on: Sunday, 17 September 2023 12:48PM

    Process ID: 258105
    Host:       d-19-15-2
    PSIDATADIR: /home/gridsan/kfisher/.conda/envs/p4env/share/psi4
    Memory:     18.6 GiB
    Threads:    1
    
  ==> Input QCSchema <==

--------------------------------------------------------------------------
{'driver': 'energy',
 'extras': {'psiapi': True, 'wfn_qcvars_only': True},
 'id': None,
 'keywords': {'D_CONVERGENCE': 1e-10, 'E_CONVERGENCE': 1e-10, 'function_kwargs': {'dft_functional': 'scan-d3zero2b'}},
 'model': {'basis': 'aug-cc-pvtz', 'method': 'scf'},
 'molecule': {'atom_labels': ['', '', '', '', '', ''],
              'atomic_numbers': [1, 1, 8, 1, 1, 8],
              'fix_com': True,
              'fix_orientation': True,
              'fix_symmetry': 'c1',
              'fragment_charges': [0.0, 0.0],
              'fragment_multiplicities': [1, 1],
              'fragments': [[0, 1, 2], [3, 4, 5]],
              'geometry': [-2.793960870174372, 6.943699588551293, 6.435018990497602, -0.9635801763919524,
                           5.30409863351117, 4.817622128458996, -2.3945346368859344, 5.212941079808273,
                           6.003976599780885, -6.711341793240494, 0.9374720037015459, 3.7080240804694213,
                           -4.903110390401952, 3.236378920837551, 3.948734370768439, -6.06090756618032,
                           2.3950129076710263, 2.755140906680497],
              'mass_numbers': [1, 1, 16, 1, 1, 16],
              'masses': [1.00782503223, 1.00782503223, 15.99491461957, 1.00782503223, 1.00782503223, 15.99491461957],
              'molecular_charge': 0.0,
              'molecular_multiplicity': 1,
              'name': 'H4O2',
              'provenance': {'creator': 'QCElemental',
                             'routine': 'qcelemental.molparse.from_string',
                             'version': 'v0.25.1'},
              'real': [True, True, True, True, True, True],
              'schema_name': 'qcschema_molecule',
              'schema_version': 2,
              'symbols': ['H', 'H', 'O', 'H', 'H', 'O'],
              'validated': True},
 'protocols': {'stdout': True},
 'provenance': {'creator': 'QCElemental', 'routine': 'qcelemental.models.results', 'version': 'v0.25.1'},
 'schema_name': 'qcschema_input',
 'schema_version': 1}
--------------------------------------------------------------------------

Scratch directory: /home/gridsan/kfisher/scratch/

*** tstart() called on d-19-15-2
*** at Sun Sep 17 20:01:52 2023

   => Loading Basis Set <=

    Name: AUG-CC-PVTZ
    Role: ORBITAL
    Keyword: BASIS
    atoms 1-2, 4-5 entry H          line    40 file /home/gridsan/kfisher/.conda/envs/p4env/share/psi4/basis/aug-cc-pvtz.gbs 
    atoms 3, 6     entry O          line   331 file /home/gridsan/kfisher/.conda/envs/p4env/share/psi4/basis/aug-cc-pvtz.gbs 

   => SCAN-D3: Empirical Dispersion <=

    Grimme's -D3 (zero-damping) Dispersion Correction
    Grimme S.; Antony J.; Ehrlich S.; Krieg H. (2010), J. Chem. Phys., 132: 154104
    Parametrisation from:    J.G. Brandenburg, J. E. Bates, J. Sun, J.P. Perdew, Phys. Rev. B 94, 115144, 2016

        s6 =       1.000000
        s8 =       0.000000
       sr6 =       1.324000
    alpha6 =      14.000000
       sr8 =       1.000000


         ---------------------------------------------------------
                                   SCF
               by Justin Turney, Rob Parrish, Andy Simmonett
                          and Daniel G. A. Smith
                              RKS Reference
                        1 Threads,  19073 MiB Core
         ---------------------------------------------------------

  ==> Geometry <==

    Molecular point group: c1
    Full point group: C1

    Geometry (in Bohr), charge = 0, multiplicity = 1:

       Center              X                  Y                   Z               Mass       
    ------------   -----------------  -----------------  -----------------  -----------------
         H           -2.793960870174     6.943699588551     6.435018990498     1.007825032230
         H           -0.963580176392     5.304098633511     4.817622128459     1.007825032230
         O           -2.394534636886     5.212941079808     6.003976599781    15.994914619570
         H           -6.711341793240     0.937472003702     3.708024080469     1.007825032230
         H           -4.903110390402     3.236378920838     3.948734370768     1.007825032230
         O           -6.060907566180     2.395012907671     2.755140906680    15.994914619570

  Running in c1 symmetry.

  Rotational constants: A =      0.21684  B =      0.03182  C =      0.02786 [cm^-1]
  Rotational constants: A =   6500.81895  B =    953.97499  C =    835.16139 [MHz]
  Nuclear repulsion =   35.785698426447809

  Charge       = 0
  Multiplicity = 1
  Electrons    = 20
  Nalpha       = 10
  Nbeta        = 10

  ==> Algorithm <==

  SCF Algorithm Type is DF.
  DIIS enabled.
  MOM disabled.
  Fractional occupation disabled.
  Guess Type is SAD.
  Energy threshold   = 1.00e-10
  Density threshold  = 1.00e-10
  Integral threshold = 1.00e-12

  ==> Primary Basis <==

  Basis Set: AUG-CC-PVTZ
    Blend: AUG-CC-PVTZ
    Number of shells: 64
    Number of basis functions: 184
    Number of Cartesian functions: 210
    Spherical Harmonics?: true
    Max angular momentum: 3

  ==> DFT Potential <==

   => Composite Functional: SCAN-D3ZERO2B <= 

    SCAN Meta-GGA XC Functional
(10.1103/PhysRevLett.115.036402)
    J. Sun, A. Ruzsinszky, J. P. Perdew  Phys. Rev. Lett. 115, 036402, 2015


    Deriv               =              1
    GGA                 =           TRUE
    Meta                =           TRUE

    Exchange Hybrid     =          FALSE
    MP2 Hybrid          =          FALSE

   => Exchange Functionals <=

    1.0000   XC_MGGA_X_SCAN

   => Correlation Functionals <=

    1.0000   XC_MGGA_C_SCAN

   => LibXC Density Thresholds  <==

    XC_MGGA_C_SCAN:  1.00E-15 
    XC_MGGA_X_SCAN:  1.00E-15 

   => Molecular Quadrature <=

    Radial Scheme          =       TREUTLER
    Pruning Scheme         =           NONE
    Nuclear Scheme         =       TREUTLER

    Blocking Scheme        =         OCTREE
    BS radius alpha        =              1
    Pruning alpha          =              1
    Radial Points          =             75
    Spherical Points       =            302
    Total Points           =         132493
    Total Blocks           =           1046
    Max Points             =            256
    Max Functions          =            184
    Weights Tolerance      =       1.00E-15

   => Loading Basis Set <=

    Name: (AUG-CC-PVTZ AUX)
    Role: JKFIT
    Keyword: DF_BASIS_SCF
    atoms 1-2, 4-5 entry H          line    70 file /home/gridsan/kfisher/.conda/envs/p4env/share/psi4/basis/aug-cc-pvtz-jkfit.gbs 
    atoms 3, 6     entry O          line   286 file /home/gridsan/kfisher/.conda/envs/p4env/share/psi4/basis/aug-cc-pvtz-jkfit.gbs 

  ==> Integral Setup <==

  DFHelper Memory: AOs need 0.105 GiB; user supplied 12.474 GiB. Using in-core AOs.

  ==> MemDFJK: Density-Fitted J/K Matrices <==

    J tasked:                   Yes
    K tasked:                    No
    wK tasked:                   No
    OpenMP threads:               1
    Memory [MiB]:             12773
    Algorithm:                 Core
    Schwarz Cutoff:           1E-12
    Mask sparsity (%):       1.6245
    Fitting Condition:        1E-10

   => Auxiliary Basis Set <=

  Basis Set: (AUG-CC-PVTZ AUX)
    Blend: AUG-CC-PVTZ-JKFIT
    Number of shells: 116
    Number of basis functions: 392
    Number of Cartesian functions: 482
    Spherical Harmonics?: true
    Max angular momentum: 4

  Cached 100.0% of DFT collocation blocks in 1.496 [GiB].

  Minimum eigenvalue in the overlap matrix is 2.4539265225E-04.
  Reciprocal condition number of the overlap matrix is 2.7462837964E-05.
    Using symmetric orthogonalization.

  ==> Pre-Iterations <==

  SCF Guess: Superposition of Atomic Densities via on-the-fly atomic UHF (no occupation information).

   -------------------------
    Irrep   Nso     Nmo    
   -------------------------
     A        184     184 
   -------------------------
    Total     184     184
   -------------------------

  ==> Iterations <==

                           Total Energy        Delta E     RMS |[F,P]|

   @DF-RKS iter SAD:  -152.15113742599803   -1.52151e+02   0.00000e+00 
   @DF-RKS iter   1:  -152.51664652582539   -3.65509e-01   5.46605e-03 DIIS/ADIIS
   @DF-RKS iter   2:  -151.50610982315470    1.01054e+00   1.00599e-02 DIIS/ADIIS
   @DF-RKS iter   3:  -152.86721992173850   -1.36111e+00   4.15063e-04 DIIS/ADIIS
   @DF-RKS iter   4:  -152.86792643144261   -7.06510e-04   4.04020e-04 DIIS/ADIIS
   @DF-RKS iter   5:  -152.86977162693640   -1.84520e-03   6.14124e-05 DIIS
   @DF-RKS iter   6:  -152.86981502982636   -4.34029e-05   1.22321e-05 DIIS
   @DF-RKS iter   7:  -152.86981706832688   -2.03850e-06   1.46179e-06 DIIS
   @DF-RKS iter   8:  -152.86981709347472   -2.51478e-08   3.22213e-07 DIIS
   @DF-RKS iter   9:  -152.86981709477590   -1.30117e-09   4.83814e-08 DIIS
   @DF-RKS iter  10:  -152.86981709480904   -3.31397e-11   6.93141e-09 DIIS
   @DF-RKS iter  11:  -152.86981709480941   -3.69482e-13   1.42908e-09 DIIS
   @DF-RKS iter  12:  -152.86981709480915    2.55795e-13   1.66837e-10 DIIS
   @DF-RKS iter  13:  -152.86981709480949   -3.41061e-13   4.25992e-11 DIIS
  Energy and wave function converged.


  ==> Post-Iterations <==

   Electrons on quadrature grid:
      Ntotal   =   19.9999997406 ; deviation = -2.594e-07 

    Orbital Energies [Eh]
    ---------------------

    Doubly Occupied:                                                      

       1A    -18.995895     2A    -18.944197     3A     -1.000986  
       4A     -0.945347     5A     -0.521521     6A     -0.466644  
       7A     -0.384198     8A     -0.332671     9A     -0.303028  
      10A     -0.254270  

    Virtual:                                                              

      11A     -0.024072    12A      0.016360    13A      0.028288  
      14A      0.054596    15A      0.081206    16A      0.088415  
      17A      0.105259    18A      0.114004    19A      0.129426  
      20A      0.138870    21A      0.162110    22A      0.170028  
      23A      0.174591    24A      0.187112    25A      0.203485  
      26A      0.208499    27A      0.227970    28A      0.259622  
      29A      0.273726    30A      0.296576    31A      0.326302  
      32A      0.331042    33A      0.338308    34A      0.348097  
      35A      0.349919    36A      0.362795    37A      0.372465  
      38A      0.486836    39A      0.490690    40A      0.505969  
      41A      0.544975    42A      0.591703    43A      0.598745  
      44A      0.613847    45A      0.635556    46A      0.646199  
      47A      0.663829    48A      0.676006    49A      0.715968  
      50A      0.728227    51A      0.762271    52A      0.779915  
      53A      0.807289    54A      0.823616    55A      0.829697  
      56A      0.848139    57A      0.854478    58A      0.859697  
      59A      0.886873    60A      0.905888    61A      0.922795  
      62A      0.938311    63A      0.947590    64A      0.961939  
      65A      0.977091    66A      1.045665    67A      1.074111  
      68A      1.089989    69A      1.109440    70A      1.117712  
      71A      1.129724    72A      1.147653    73A      1.162832  
      74A      1.197427    75A      1.223726    76A      1.307576  
      77A      1.330025    78A      1.379763    79A      1.422867  
      80A      1.445513    81A      1.493419    82A      1.499422  
      83A      1.529046    84A      1.588177    85A      1.657539  
      86A      1.671880    87A      1.774674    88A      1.826878  
      89A      1.836201    90A      1.905342    91A      1.948624  
      92A      2.059955    93A      2.099346    94A      2.108615  
      95A      2.133800    96A      2.198344    97A      2.217925  
      98A      2.242932    99A      2.278645   100A      2.292133  
     101A      2.313410   102A      2.334737   103A      2.364743  
     104A      2.429253   105A      2.482456   106A      2.526378  
     107A      2.535845   108A      2.582387   109A      2.592829  
     110A      2.611013   111A      2.703430   112A      2.712184  
     113A      2.722538   114A      2.771075   115A      2.813485  
     116A      2.838162   117A      3.493299   118A      3.542099  
     119A      3.563413   120A      3.804892   121A      3.830175  
     122A      3.914425   123A      3.947588   124A      3.980382  
     125A      4.064684   126A      4.079135   127A      4.113871  
     128A      4.134244   129A      4.191623   130A      4.252767  
     131A      4.267425   132A      4.271819   133A      4.296394  
     134A      4.321471   135A      4.341113   136A      4.370589  
     137A      4.407585   138A      4.452406   139A      4.490146  
     140A      4.598182   141A      4.641604   142A      4.759930  
     143A      4.928617   144A      4.988994   145A      5.011392  
     146A      5.058287   147A      5.065545   148A      5.112745  
     149A      5.140483   150A      5.161133   151A      5.283938  
     152A      5.371243   153A      5.500152   154A      5.541802  
     155A      5.927877   156A      6.028733   157A      6.249516  
     158A      6.292613   159A      6.477119   160A      6.490936  
     161A      6.609265   162A      6.670369   163A      6.843097  
     164A      6.883464   165A      6.897548   166A      6.922863  
     167A      6.955892   168A      6.962221   169A      6.991222  
     170A      7.006746   171A      7.021144   172A      7.061717  
     173A      7.086536   174A      7.154498   175A      7.241197  
     176A      7.355228   177A      7.586473   178A      7.587476  
     179A      7.664265   180A      7.706252   181A      8.456852  
     182A      8.495510   183A     14.663449   184A     15.584887  

    Final Occupation by Irrep:
              A 
    DOCC [    10 ]
    NA   [    10 ]
    NB   [    10 ]

  @DF-RKS Final Energy:  -152.86981709480949

   => Energetics <=

    Nuclear Repulsion Energy =             35.7856984264478086
    One-Electron Energy =                -281.0016103790989632
    Two-Electron Energy =                 110.9134722188604769
    DFT Exchange-Correlation Energy =     -18.5671741210188301
    Empirical Dispersion Energy =          -0.0002032400000000
    VV10 Nonlocal Energy =                  0.0000000000000000
    Total Energy =                       -152.8698170948094912

Computation Completed


Properties will be evaluated at   0.000000,   0.000000,   0.000000 [a0]

Properties computed using the SCF density matrix


 Multipole Moments:

 ------------------------------------------------------------------------------------
     Multipole            Electronic (a.u.)      Nuclear  (a.u.)        Total (a.u.)
 ------------------------------------------------------------------------------------

 L = 1.  Multiply by 2.5417464519 to convert [e a0] to [Debye]
 Dipole X            :         83.6650308          -83.0155309            0.6494999
 Dipole Y            :        -76.7491848           77.2852810            0.5360962
 Dipole Z            :        -88.4168282           88.9823396            0.5655114
 Magnitude           :                                                    1.0144222

 ------------------------------------------------------------------------------------

*** tstop() called on d-19-15-2 at Sun Sep 17 20:02:18 2023
Module time:
	user time   =      25.91 seconds =       0.43 minutes
	system time =       0.05 seconds =       0.00 minutes
	total time  =         26 seconds =       0.43 minutes
Total time:
	user time   =   15672.61 seconds =     261.21 minutes
	system time =    7097.54 seconds =     118.29 minutes
	total time  =      26034 seconds =     433.90 minutes

    Psi4 stopped on: Sunday, 17 September 2023 08:02PM
    Psi4 wall time for execution: 0:00:26.13


  //>>>>>>>>>>>>>>>>>>>>>>>>>>>>>>>>>>>//
  //          ManyBody Results         //
  //<<<<<<<<<<<<<<<<<<<<<<<<<<<<<<<<<<<//


   ==> N-Body: Counterpoise Corrected (CP) energies <==

        n-Body     Total Energy            Interaction Energy                          N-body Contribution to Interaction Energy
                   [Eh]                    [Eh]                  [kcal/mol]            [Eh]                  [kcal/mol]
             1  N/A                         0.000000000000        0.000000000000        0.000000000000        0.000000000000
  FULL/RTN   2  N/A                        -0.008737630161       -5.482945704655       -0.008737630161       -5.482945704655


