Scratch directory: /home/gridsan/kfisher/scratch/

  //>>>>>>>>>>>>>>>>>>>>>>>>>>>>>>>>>>>>>>>>//
  // ManyBody Setup: N-Body Levels [1, 2, 3]//
  //<<<<<<<<<<<<<<<<<<<<<<<<<<<<<<<<<<<<<<<<//

        Number of 1-body computations:     3
        Number of 2-body computations:     3
        Number of 3-body computations:     1

    -----------------------------------------------------------------------
          Psi4: An Open-Source Ab Initio Electronic Structure Package
                               Psi4 1.7 release

                         Git: Rev {HEAD} 6ce35a5 


    D. G. A. Smith, L. A. Burns, A. C. Simmonett, R. M. Parrish,
    M. C. Schieber, R. Galvelis, P. Kraus, H. Kruse, R. Di Remigio,
    A. Alenaizan, A. M. James, S. Lehtola, J. P. Misiewicz, M. Scheurer,
    R. A. Shaw, J. B. Schriber, Y. Xie, Z. L. Glick, D. A. Sirianni,
    J. S. O'Brien, J. M. Waldrop, A. Kumar, E. G. Hohenstein,
    B. P. Pritchard, B. R. Brooks, H. F. Schaefer III, A. Yu. Sokolov,
    K. Patkowski, A. E. DePrince III, U. Bozkaya, R. A. King,
    F. A. Evangelista, J. M. Turney, T. D. Crawford, C. D. Sherrill,
    J. Chem. Phys. 152(18) 184108 (2020). https://doi.org/10.1063/5.0006002

                            Additional Code Authors
    E. T. Seidl, C. L. Janssen, E. F. Valeev, M. L. Leininger,
    J. F. Gonthier, R. M. Richard, H. R. McAlexander, M. Saitow, X. Wang,
    P. Verma, M. H. Lechner, A. Jiang, S. Behnle, A. G. Heide,
    M. F. Herbst, and D. L. Poole

             Previous Authors, Complete List of Code Contributors,
                       and Citations for Specific Modules
    https://github.com/psi4/psi4/blob/master/codemeta.json
    https://github.com/psi4/psi4/graphs/contributors
    http://psicode.org/psi4manual/master/introduction.html#citing-psifour

    -----------------------------------------------------------------------


    Psi4 started on: Sunday, 17 September 2023 12:48PM

    Process ID: 258105
    Host:       d-19-15-2
    PSIDATADIR: /home/gridsan/kfisher/.conda/envs/p4env/share/psi4
    Memory:     18.6 GiB
    Threads:    1
    
  ==> Input QCSchema <==

--------------------------------------------------------------------------
{'driver': 'energy',
 'extras': {'psiapi': True, 'wfn_qcvars_only': True},
 'id': None,
 'keywords': {'D_CONVERGENCE': 1e-10, 'E_CONVERGENCE': 1e-10, 'function_kwargs': {}},
 'model': {'basis': 'aug-cc-pvtz', 'method': 'ccsd(t)'},
 'molecule': {'atom_labels': ['', '', '', '', '', '', '', '', ''],
              'atomic_numbers': [1, 1, 8, 1, 1, 8, 1, 1, 8],
              'fix_com': True,
              'fix_orientation': True,
              'fix_symmetry': 'c1',
              'fragment_charges': [0.0, 0.0, 0.0],
              'fragment_multiplicities': [1, 1, 1],
              'fragments': [[0, 1, 2], [3, 4, 5], [6, 7, 8]],
              'geometry': [-9.595127544459567, -7.930720041186992, 7.223091873439765, -7.14201982586296,
                           -8.651408862077707, 5.849457133803748, -8.964162920005588, -8.613936915818167,
                           5.672276979198659, -8.3073397934769, -6.792631140424466, 1.794014898710415,
                           -7.747445311957429, -4.6766690819255645, -0.11283252338928619, -7.211115337277191,
                           -6.323947691857242, 0.40588652660997254, -4.3022241965361845, -7.12640666295003,
                           2.431219209858042, -2.4433771408314, -9.105704861891496, 3.444638512856765,
                           -3.545619051932405, -7.770519812812331, 3.969004442464117],
              'mass_numbers': [1, 1, 16, 1, 1, 16, 1, 1, 16],
              'masses': [1.00782503223, 1.00782503223, 15.99491461957, 1.00782503223, 1.00782503223, 15.99491461957,
                         1.00782503223, 1.00782503223, 15.99491461957],
              'molecular_charge': 0.0,
              'molecular_multiplicity': 1,
              'name': 'H6O3',
              'provenance': {'creator': 'QCElemental',
                             'routine': 'qcelemental.molparse.from_string',
                             'version': 'v0.25.1'},
              'real': [True, True, True, False, False, False, False, False, False],
              'schema_name': 'qcschema_molecule',
              'schema_version': 2,
              'symbols': ['H', 'H', 'O', 'H', 'H', 'O', 'H', 'H', 'O'],
              'validated': True},
 'protocols': {'stdout': True},
 'provenance': {'creator': 'QCElemental', 'routine': 'qcelemental.models.results', 'version': 'v0.25.1'},
 'schema_name': 'qcschema_input',
 'schema_version': 1}
--------------------------------------------------------------------------

Scratch directory: /home/gridsan/kfisher/scratch/

*** tstart() called on d-19-15-2
*** at Wed Sep 20 04:07:02 2023

   => Loading Basis Set <=

    Name: AUG-CC-PVTZ
    Role: ORBITAL
    Keyword: BASIS
    atoms 1-2, 4-5, 7-8 entry H          line    40 file /home/gridsan/kfisher/.conda/envs/p4env/share/psi4/basis/aug-cc-pvtz.gbs 
    atoms 3, 6, 9       entry O          line   331 file /home/gridsan/kfisher/.conda/envs/p4env/share/psi4/basis/aug-cc-pvtz.gbs 


         ---------------------------------------------------------
                                   SCF
               by Justin Turney, Rob Parrish, Andy Simmonett
                          and Daniel G. A. Smith
                              RHF Reference
                        1 Threads,  19073 MiB Core
         ---------------------------------------------------------

  ==> Geometry <==

    Molecular point group: c1
    Full point group: C1

    Geometry (in Bohr), charge = 0, multiplicity = 1:

       Center              X                  Y                   Z               Mass       
    ------------   -----------------  -----------------  -----------------  -----------------
         H           -9.595127544460    -7.930720041187     7.223091873440     1.007825032230
         H           -7.142019825863    -8.651408862078     5.849457133804     1.007825032230
         O           -8.964162920006    -8.613936915818     5.672276979199    15.994914619570
      Gh(H)          -8.307339793477    -6.792631140424     1.794014898710     1.007825032230
      Gh(H)          -7.747445311957    -4.676669081926    -0.112832523389     1.007825032230
      Gh(O)          -7.211115337277    -6.323947691857     0.405886526610    15.994914619570
      Gh(H)          -4.302224196536    -7.126406662950     2.431219209858     1.007825032230
      Gh(H)          -2.443377140831    -9.105704861891     3.444638512857     1.007825032230
      Gh(O)          -3.545619051932    -7.770519812812     3.969004442464    15.994914619570

  Running in c1 symmetry.

  Rotational constants: A =      0.16673  B =      0.00946  C =      0.00922 [cm^-1]
  Rotational constants: A =   4998.54537  B =    283.54595  C =    276.30011 [MHz]
  Nuclear repulsion =    9.137508922173019

  Charge       = 0
  Multiplicity = 1
  Electrons    = 10
  Nalpha       = 5
  Nbeta        = 5

  ==> Algorithm <==

  SCF Algorithm Type is PK.
  DIIS enabled.
  MOM disabled.
  Fractional occupation disabled.
  Guess Type is SAD.
  Energy threshold   = 1.00e-10
  Density threshold  = 1.00e-10
  Integral threshold = 1.00e-12

  ==> Primary Basis <==

  Basis Set: AUG-CC-PVTZ
    Blend: AUG-CC-PVTZ
    Number of shells: 96
    Number of basis functions: 276
    Number of Cartesian functions: 315
    Spherical Harmonics?: true
    Max angular momentum: 3

  ==> Integral Setup <==

  Using in-core PK algorithm.
   Calculation information:
      Number of atoms:                   9
      Number of AO shells:              96
      Number of primitives:            156
      Number of atomic orbitals:       315
      Number of basis functions:       276

      Integral cutoff                 1.00e-12
      Number of threads:                 1

  Performing in-core PK
  Using 1461265302 doubles for integral storage.
  We computed 10066860 shell quartets total.
  Whereas there are 10841496 unique shell quartets.

  ==> DiskJK: Disk-Based J/K Matrices <==

    J tasked:                  Yes
    K tasked:                  Yes
    wK tasked:                  No
    Memory [MiB]:            14305
    Schwarz Cutoff:          1E-12

    OpenMP threads:              1

  Minimum eigenvalue in the overlap matrix is 1.6302493532E-04.
  Reciprocal condition number of the overlap matrix is 1.4268811080E-05.
    Using symmetric orthogonalization.

  ==> Pre-Iterations <==

  SCF Guess: Superposition of Atomic Densities via on-the-fly atomic UHF (no occupation information).

   -------------------------
    Irrep   Nso     Nmo    
   -------------------------
     A        276     276 
   -------------------------
    Total     276     276
   -------------------------

  ==> Iterations <==

                        Total Energy        Delta E     RMS |[F,P]|

   @RHF iter SAD:   -75.47016253742416   -7.54702e+01   0.00000e+00 
   @RHF iter   1:   -75.97584970274215   -5.05687e-01   1.69640e-03 DIIS/ADIIS
   @RHF iter   2:   -76.02819776486467   -5.23481e-02   1.15930e-03 DIIS/ADIIS
   @RHF iter   3:   -76.05979250677410   -3.15947e-02   7.89865e-05 DIIS
   @RHF iter   4:   -76.06018912178385   -3.96615e-04   1.89990e-05 DIIS
   @RHF iter   5:   -76.06021421479110   -2.50930e-05   4.32814e-06 DIIS
   @RHF iter   6:   -76.06021628493133   -2.07014e-06   9.55213e-07 DIIS
   @RHF iter   7:   -76.06021639615392   -1.11223e-07   1.74884e-07 DIIS
   @RHF iter   8:   -76.06021639943049   -3.27657e-09   2.92892e-08 DIIS
   @RHF iter   9:   -76.06021639950286   -7.23759e-11   7.33993e-09 DIIS
   @RHF iter  10:   -76.06021639950822   -5.35749e-12   1.05032e-09 DIIS
   @RHF iter  11:   -76.06021639950801    2.13163e-13   1.69862e-10 DIIS
   @RHF iter  12:   -76.06021639950757    4.40536e-13   3.70717e-11 DIIS
  Energy and wave function converged.


  ==> Post-Iterations <==

    Orbital Energies [Eh]
    ---------------------

    Doubly Occupied:                                                      

       1A    -20.567483     2A     -1.349711     3A     -0.717062  
       4A     -0.581286     5A     -0.509493  

    Virtual:                                                              

       6A      0.021757     7A      0.040746     8A      0.043627  
       9A      0.061878    10A      0.066746    11A      0.074896  
      12A      0.107647    13A      0.124104    14A      0.142981  
      15A      0.145314    16A      0.152803    17A      0.169507  
      18A      0.184078    19A      0.188993    20A      0.192046  
      21A      0.207384    22A      0.224197    23A      0.239246  
      24A      0.252391    25A      0.263626    26A      0.281298  
      27A      0.292396    28A      0.317196    29A      0.324363  
      30A      0.334680    31A      0.341850    32A      0.356800  
      33A      0.366258    34A      0.372399    35A      0.376190  
      36A      0.393417    37A      0.401530    38A      0.417502  
      39A      0.426920    40A      0.439465    41A      0.448829  
      42A      0.465410    43A      0.471776    44A      0.490176  
      45A      0.519247    46A      0.540518    47A      0.555198  
      48A      0.616365    49A      0.648829    50A      0.690249  
      51A      0.712611    52A      0.728052    53A      0.746619  
      54A      0.749525    55A      0.772370    56A      0.780254  
      57A      0.789014    58A      0.797783    59A      0.812718  
      60A      0.823677    61A      0.834717    62A      0.840509  
      63A      0.855449    64A      0.863103    65A      0.876870  
      66A      0.888324    67A      0.901466    68A      0.918946  
      69A      0.932307    70A      0.940247    71A      0.952598  
      72A      0.961062    73A      0.967114    74A      0.977748  
      75A      0.994901    76A      1.012553    77A      1.014048  
      78A      1.036205    79A      1.036766    80A      1.055293  
      81A      1.075498    82A      1.089218    83A      1.091983  
      84A      1.109817    85A      1.131902    86A      1.136799  
      87A      1.162705    88A      1.174405    89A      1.187219  
      90A      1.209819    91A      1.238856    92A      1.264981  
      93A      1.280687    94A      1.295158    95A      1.306239  
      96A      1.323606    97A      1.355651    98A      1.391030  
      99A      1.403463   100A      1.426745   101A      1.449168  
     102A      1.480509   103A      1.504642   104A      1.558697  
     105A      1.573199   106A      1.595677   107A      1.626701  
     108A      1.631324   109A      1.653113   110A      1.666248  
     111A      1.714509   112A      1.723081   113A      1.732710  
     114A      1.784532   115A      1.829106   116A      1.843628  
     117A      1.860158   118A      1.893621   119A      1.902515  
     120A      1.924152   121A      1.962548   122A      1.969366  
     123A      2.057154   124A      2.090042   125A      2.096702  
     126A      2.131873   127A      2.210265   128A      2.293859  
     129A      2.347928   130A      2.394558   131A      2.457088  
     132A      2.468653   133A      2.493474   134A      2.510018  
     135A      2.523843   136A      2.531902   137A      2.550654  
     138A      2.572046   139A      2.581366   140A      2.599170  
     141A      2.612500   142A      2.645662   143A      2.675775  
     144A      2.708776   145A      2.722741   146A      2.769077  
     147A      2.807153   148A      2.817924   149A      2.829721  
     150A      2.865130   151A      2.875026   152A      2.900131  
     153A      2.938560   154A      2.942971   155A      2.974806  
     156A      3.050443   157A      3.081388   158A      3.094701  
     159A      3.222297   160A      3.244544   161A      3.280705  
     162A      3.301552   163A      3.366202   164A      3.377247  
     165A      3.415047   166A      3.435826   167A      3.478824  
     168A      3.559076   169A      3.600293   170A      3.668766  
     171A      3.772193   172A      3.849314   173A      3.858981  
     174A      3.978335   175A      4.101839   176A      4.239383  
     177A      4.285500   178A      4.351540   179A      4.363030  
     180A      4.403326   181A      4.418578   182A      4.475355  
     183A      4.495835   184A      4.527504   185A      4.563932  
     186A      4.574061   187A      4.597033   188A      4.624571  
     189A      4.638838   190A      4.687504   191A      4.702316  
     192A      4.739869   193A      4.787088   194A      4.804491  
     195A      4.882781   196A      4.926078   197A      4.961503  
     198A      5.023791   199A      5.055057   200A      5.066423  
     201A      5.100326   202A      5.164398   203A      5.178157  
     204A      5.189971   205A      5.222877   206A      5.319488  
     207A      5.359282   208A      5.395085   209A      5.451306  
     210A      5.528065   211A      5.564473   212A      5.573784  
     213A      5.685678   214A      5.698555   215A      5.728037  
     216A      5.774737   217A      5.801647   218A      5.921549  
     219A      5.950865   220A      6.212255   221A      6.295786  
     222A      6.312909   223A      6.478061   224A      6.538276  
     225A      6.576771   226A      6.694536   227A      6.737639  
     228A      6.814496   229A      6.937629   230A      7.094041  
     231A      7.154477   232A      7.199381   233A      7.335214  
     234A      7.360860   235A      7.380834   236A      7.406966  
     237A      7.454148   238A      7.688424   239A      7.756275  
     240A      7.811709   241A      7.872141   242A      7.898792  
     243A      7.976944   244A      7.984087   245A      8.125065  
     246A      8.148410   247A      8.225748   248A      8.270336  
     249A      8.291986   250A      8.450724   251A      8.797862  
     252A      8.848004   253A      8.881199   254A      8.930157  
     255A      9.004578   256A      9.762865   257A      9.849449  
     258A      9.969670   259A     10.031141   260A     10.093014  
     261A     10.122487   262A     10.290198   263A     10.310287  
     264A     11.225140   265A     11.269441   266A     11.868961  
     267A     11.943986   268A     12.230642   269A     12.376956  
     270A     13.611734   271A     13.660751   272A     13.972166  
     273A     13.988465   274A     16.155999   275A     65.975891  
     276A     66.364585  

    Final Occupation by Irrep:
              A 
    DOCC [     5 ]
    NA   [     5 ]
    NB   [     5 ]

  @RHF Final Energy:   -76.06021639950757

   => Energetics <=

    Nuclear Repulsion Energy =              9.1375089221730192
    One-Electron Energy =                -122.9453809236388508
    Two-Electron Energy =                  37.7476556019582574
    Total Energy =                        -76.0602163995075671

Computation Completed


Properties will be evaluated at   0.000000,   0.000000,   0.000000 [a0]

Properties computed using the SCF density matrix


 Multipole Moments:

 ------------------------------------------------------------------------------------
     Multipole            Electronic (a.u.)      Nuclear  (a.u.)        Total (a.u.)
 ------------------------------------------------------------------------------------

 L = 1.  Multiply by 2.5417464519 to convert [e a0] to [Debye]
 Dipole X            :         88.8682024          -88.4504507            0.4177517
 Dipole Y            :         85.7209802          -85.4936242            0.2273559
 Dipole Z            :        -57.8414735           58.4507648            0.6092914
 Magnitude           :                                                    0.7729445

 ------------------------------------------------------------------------------------

*** tstop() called on d-19-15-2 at Wed Sep 20 04:08:36 2023
Module time:
	user time   =      83.75 seconds =       1.40 minutes
	system time =       2.79 seconds =       0.05 minutes
	total time  =         94 seconds =       1.57 minutes
Total time:
	user time   =  134987.59 seconds =    2249.79 minutes
	system time =   68968.56 seconds =    1149.48 minutes
	total time  =     228012 seconds =    3800.20 minutes
 MINTS: Wrapper to libmints.
   by Justin Turney

   Calculation information:
      Number of threads:                 1
      Number of atoms:                   9
      Number of AO shells:              96
      Number of SO shells:              96
      Number of primitives:            156
      Number of atomic orbitals:       315
      Number of basis functions:       276

      Number of irreps:                  1
      Integral cutoff                 1.00e-12
      Number of functions per irrep: [ 276 ]

 OEINTS: Overlap, kinetic, potential, dipole, and quadrupole integrals
         stored in file 35.

      Computing two-electron integrals...done
      Computed 643318463 non-zero two-electron integrals.
        Stored in file 33.


*** tstart() called on d-19-15-2
*** at Wed Sep 20 04:09:35 2023


	Wfn Parameters:
	--------------------
	Wavefunction         = CCSD_T
	Number of irreps     = 1
	Number of MOs        = 276
	Number of active MOs = 276
	AO-Basis             = NONE
	Semicanonical        = false
	Reference            = RHF
	Print Level          = 1

	IRREP	# MOs	# FZDC	# DOCC	# SOCC	# VIRT	# FZVR
	-----	-----	------	------	------	------	------
	 A	   276	    0	    5	    0	    271	    0
	Transforming integrals...
	IWL integrals will be deleted.
	(OO|OO)...
	Presorting SO-basis two-electron integrals.
	Sorting File: SO Ints (nn|nn) nbuckets = 1
	Constructing frozen core operators
	Starting first half-transformation.
	Sorting half-transformed integrals.
	First half integral transformation complete.
	Starting second half-transformation.
	Two-electron integral transformation complete.
	(OO|OV)...
	Starting second half-transformation.
	Two-electron integral transformation complete.
	(OO|VV)...
	Starting second half-transformation.
	Two-electron integral transformation complete.
	(OV|OO)...
	Starting first half-transformation.
	Sorting half-transformed integrals.
	First half integral transformation complete.
	Starting second half-transformation.
	Two-electron integral transformation complete.
	(OV|OV)...
	Starting second half-transformation.
	Two-electron integral transformation complete.
	(OV|VV)...
	Starting second half-transformation.
	Two-electron integral transformation complete.
	(VV|OO)...
	Starting first half-transformation.
	Sorting half-transformed integrals.
	First half integral transformation complete.
	Starting second half-transformation.
	Two-electron integral transformation complete.
	(VV|OV)...
	Starting second half-transformation.
	Two-electron integral transformation complete.
	(VV|VV)...
	Starting second half-transformation.
	Two-electron integral transformation complete.
	Frozen core energy     =      0.00000000000000

	Size of irrep 0 of <ab|cd> integrals:   5393.580 (MW) /  43148.644 (MB)
	Total:                                  5393.580 (MW) /  43148.644 (MB)

	Size of irrep 0 of <ia|bc> integrals:     99.513 (MW) /    796.100 (MB)
	Total:                                    99.513 (MW) /    796.100 (MB)

	Size of irrep 0 of tijab amplitudes:       1.836 (MW) /     14.688 (MB)
	Total:                                     1.836 (MW) /     14.688 (MB)

	Nuclear Rep. energy          =      9.13750892217302
	SCF energy                   =    -76.06021639950757
	One-electron energy          =   -122.94538092988728
	Two-electron energy          =     37.74765560820667
	Reference energy             =    -76.06021639950760

*** tstop() called on d-19-15-2 at Wed Sep 20 04:22:55 2023
Module time:
	user time   =     505.19 seconds =       8.42 minutes
	system time =     258.94 seconds =       4.32 minutes
	total time  =        800 seconds =      13.33 minutes
Total time:
	user time   =  135536.39 seconds =    2258.94 minutes
	system time =   69242.08 seconds =    1154.03 minutes
	total time  =     228871 seconds =    3814.52 minutes
            **************************
            *                        *
            *        CCENERGY        *
            *                        *
            **************************

    Nuclear Rep. energy (wfn)     =    9.137508922173019
    SCF energy          (wfn)     =  -76.060216399507567
    Reference energy    (file100) =  -76.060216399507595

    Input parameters:
    -----------------
    Wave function   =     CCSD_T
    Reference wfn   =     RHF
    Brueckner       =     No
    Memory (Mbytes) =     20000.0
    Maxiter         =     50
    R_Convergence   =     1.0e-07
    E_Convergence   =     1.0e-10
    Restart         =     Yes
    DIIS            =     Yes
    AO Basis        =     NONE
    ABCD            =     NEW
    Cache Level     =     2
    Cache Type      =     LOW
    Print Level     =     1
    Num. of threads =     1
    # Amps to Print =     10
    Print MP2 Amps? =     No
    Analyze T2 Amps =     No
    Print Pair Ener =     No
    Local CC        =     No
    SCS-MP2         =     False
    SCSN-MP2        =     False
    SCS-CCSD        =     False

MP2 correlation energy -0.2845496393216678
                Solving CC Amplitude Equations
                ------------------------------
  Iter             Energy              RMS        T1Diag      D1Diag    New D1Diag    D2Diag
  ----     ---------------------    ---------   ----------  ----------  ----------   --------
     0        -0.284549639321668    0.000e+00    0.000000    0.000000    0.000000    0.118253
     1        -0.282853724924254    3.549e-02    0.007596    0.017084    0.017084    0.120600
     2        -0.287889185749166    1.250e-02    0.007441    0.016872    0.016872    0.125104
     3        -0.289230980129242    4.885e-03    0.008622    0.020075    0.020075    0.127236
     4        -0.289102954643412    1.066e-03    0.008779    0.020538    0.020538    0.127427
     5        -0.289112208914383    4.016e-04    0.008864    0.020833    0.020833    0.127484
     6        -0.289119720535243    1.077e-04    0.008886    0.020918    0.020918    0.127483
     7        -0.289118117228161    3.903e-05    0.008891    0.020941    0.020941    0.127475
     8        -0.289117406505356    1.193e-05    0.008893    0.020948    0.020948    0.127473
     9        -0.289117510187865    4.345e-06    0.008893    0.020950    0.020950    0.127473
    10        -0.289117322230888    1.538e-06    0.008894    0.020951    0.020951    0.127473
    11        -0.289117307104412    5.230e-07    0.008894    0.020951    0.020951    0.127473
    12        -0.289117297853826    2.209e-07    0.008894    0.020951    0.020951    0.127473
    13        -0.289117293365869    7.918e-08    0.008894    0.020951    0.020951    0.127473
    14        -0.289117293205225    2.843e-08    0.008894    0.020951    0.020951    0.127473
    15        -0.289117293487353    9.980e-09    0.008894    0.020951    0.020951    0.127473
    16        -0.289117293468316    3.511e-09    0.008894    0.020951    0.020951    0.127473
    17        -0.289117293467206    1.278e-09    0.008894    0.020951    0.020951    0.127473

    Iterations converged.


    Largest TIA Amplitudes:
              4   6        -0.0070245782
              4  15         0.0069562899
              4  11        -0.0064114120
              4   9        -0.0061460969
              3   8         0.0050139230
              4  23         0.0044200587
              4  21        -0.0041456894
              3  15        -0.0041353856
              4  31         0.0040948500
              4   2        -0.0037008306

    Largest TIjAb Amplitudes:
      2   2  35  35        -0.0101893156
      2   2  42  42        -0.0099739536
      3   3  42  42        -0.0085595825
      2   2  35  73        -0.0067078362
      2   2  73  35        -0.0067078362
      0   0 268 268        -0.0066567658
      2   2  35  42        -0.0063547211
      2   2  42  35        -0.0063547211
      2   2  41  41        -0.0060698415
      4   4 104 104        -0.0060322817

    SCF energy       (wfn)                    =  -76.060216399507567
    Reference energy (file100)                =  -76.060216399507595

    Opposite-spin MP2 correlation energy      =   -0.216083845373007
    Same-spin MP2 correlation energy          =   -0.068465793948661
    Singles MP2 correlation energy            =   -0.000000000000000
    MP2 correlation energy                    =   -0.284549639321668
      * MP2 total energy                      =  -76.344766038829263

    Opposite-spin CCSD correlation energy     =   -0.228085125744139
    Same-spin CCSD correlation energy         =   -0.061032167723068
    Singles CCSD correlation energy           =    0.000000000000000
    CCSD correlation energy                   =   -0.289117293467206
      * CCSD total energy                     =  -76.349333692974795

            **************************
            *                        *
            *        CCTRIPLES       *
            *                        *
            **************************


    Wave function   =    CCSD_T
    Reference wfn   =      RHF

    Nuclear Rep. energy (wfn)                =    9.137508922173019
    SCF energy          (wfn)                =  -76.060216399507567
    Reference energy    (file100)            =  -76.060216399507595
    CCSD energy         (file100)            =   -0.289117293467206
    Total CCSD energy   (file100)            =  -76.349333692974795

    Number of ijk index combinations:               35
    Memory available in words               :      2500000000
    Approx. words needed per explicit thread:        79610044
    Number of threads for explicit ijk threading:    1

    MKL num_threads set to 1 for explicit threading.

    (T) energy                                =   -0.008842706103311
      * CCSD(T) total energy                  =  -76.358176399078118


    Psi4 stopped on: Wednesday, 20 September 2023 04:34AM
    Psi4 wall time for execution: 0:27:35.39


    -----------------------------------------------------------------------
          Psi4: An Open-Source Ab Initio Electronic Structure Package
                               Psi4 1.7 release

                         Git: Rev {HEAD} 6ce35a5 


    D. G. A. Smith, L. A. Burns, A. C. Simmonett, R. M. Parrish,
    M. C. Schieber, R. Galvelis, P. Kraus, H. Kruse, R. Di Remigio,
    A. Alenaizan, A. M. James, S. Lehtola, J. P. Misiewicz, M. Scheurer,
    R. A. Shaw, J. B. Schriber, Y. Xie, Z. L. Glick, D. A. Sirianni,
    J. S. O'Brien, J. M. Waldrop, A. Kumar, E. G. Hohenstein,
    B. P. Pritchard, B. R. Brooks, H. F. Schaefer III, A. Yu. Sokolov,
    K. Patkowski, A. E. DePrince III, U. Bozkaya, R. A. King,
    F. A. Evangelista, J. M. Turney, T. D. Crawford, C. D. Sherrill,
    J. Chem. Phys. 152(18) 184108 (2020). https://doi.org/10.1063/5.0006002

                            Additional Code Authors
    E. T. Seidl, C. L. Janssen, E. F. Valeev, M. L. Leininger,
    J. F. Gonthier, R. M. Richard, H. R. McAlexander, M. Saitow, X. Wang,
    P. Verma, M. H. Lechner, A. Jiang, S. Behnle, A. G. Heide,
    M. F. Herbst, and D. L. Poole

             Previous Authors, Complete List of Code Contributors,
                       and Citations for Specific Modules
    https://github.com/psi4/psi4/blob/master/codemeta.json
    https://github.com/psi4/psi4/graphs/contributors
    http://psicode.org/psi4manual/master/introduction.html#citing-psifour

    -----------------------------------------------------------------------


    Psi4 started on: Sunday, 17 September 2023 12:48PM

    Process ID: 258105
    Host:       d-19-15-2
    PSIDATADIR: /home/gridsan/kfisher/.conda/envs/p4env/share/psi4
    Memory:     18.6 GiB
    Threads:    1
    
  ==> Input QCSchema <==

--------------------------------------------------------------------------
{'driver': 'energy',
 'extras': {'psiapi': True, 'wfn_qcvars_only': True},
 'id': None,
 'keywords': {'D_CONVERGENCE': 1e-10, 'E_CONVERGENCE': 1e-10, 'function_kwargs': {}},
 'model': {'basis': 'aug-cc-pvtz', 'method': 'ccsd(t)'},
 'molecule': {'atom_labels': ['', '', '', '', '', '', '', '', ''],
              'atomic_numbers': [1, 1, 8, 1, 1, 8, 1, 1, 8],
              'fix_com': True,
              'fix_orientation': True,
              'fix_symmetry': 'c1',
              'fragment_charges': [0.0, 0.0, 0.0],
              'fragment_multiplicities': [1, 1, 1],
              'fragments': [[0, 1, 2], [3, 4, 5], [6, 7, 8]],
              'geometry': [-9.595127544459567, -7.930720041186992, 7.223091873439765, -7.14201982586296,
                           -8.651408862077707, 5.849457133803748, -8.964162920005588, -8.613936915818167,
                           5.672276979198659, -8.3073397934769, -6.792631140424466, 1.794014898710415,
                           -7.747445311957429, -4.6766690819255645, -0.11283252338928619, -7.211115337277191,
                           -6.323947691857242, 0.40588652660997254, -4.3022241965361845, -7.12640666295003,
                           2.431219209858042, -2.4433771408314, -9.105704861891496, 3.444638512856765,
                           -3.545619051932405, -7.770519812812331, 3.969004442464117],
              'mass_numbers': [1, 1, 16, 1, 1, 16, 1, 1, 16],
              'masses': [1.00782503223, 1.00782503223, 15.99491461957, 1.00782503223, 1.00782503223, 15.99491461957,
                         1.00782503223, 1.00782503223, 15.99491461957],
              'molecular_charge': 0.0,
              'molecular_multiplicity': 1,
              'name': 'H6O3',
              'provenance': {'creator': 'QCElemental',
                             'routine': 'qcelemental.molparse.from_string',
                             'version': 'v0.25.1'},
              'real': [False, False, False, True, True, True, False, False, False],
              'schema_name': 'qcschema_molecule',
              'schema_version': 2,
              'symbols': ['H', 'H', 'O', 'H', 'H', 'O', 'H', 'H', 'O'],
              'validated': True},
 'protocols': {'stdout': True},
 'provenance': {'creator': 'QCElemental', 'routine': 'qcelemental.models.results', 'version': 'v0.25.1'},
 'schema_name': 'qcschema_input',
 'schema_version': 1}
--------------------------------------------------------------------------

Scratch directory: /home/gridsan/kfisher/scratch/

*** tstart() called on d-19-15-2
*** at Wed Sep 20 04:34:37 2023

   => Loading Basis Set <=

    Name: AUG-CC-PVTZ
    Role: ORBITAL
    Keyword: BASIS
    atoms 1-2, 4-5, 7-8 entry H          line    40 file /home/gridsan/kfisher/.conda/envs/p4env/share/psi4/basis/aug-cc-pvtz.gbs 
    atoms 3, 6, 9       entry O          line   331 file /home/gridsan/kfisher/.conda/envs/p4env/share/psi4/basis/aug-cc-pvtz.gbs 


         ---------------------------------------------------------
                                   SCF
               by Justin Turney, Rob Parrish, Andy Simmonett
                          and Daniel G. A. Smith
                              RHF Reference
                        1 Threads,  19073 MiB Core
         ---------------------------------------------------------

  ==> Geometry <==

    Molecular point group: c1
    Full point group: C1

    Geometry (in Bohr), charge = 0, multiplicity = 1:

       Center              X                  Y                   Z               Mass       
    ------------   -----------------  -----------------  -----------------  -----------------
      Gh(H)          -9.595127544460    -7.930720041187     7.223091873440     1.007825032230
      Gh(H)          -7.142019825863    -8.651408862078     5.849457133804     1.007825032230
      Gh(O)          -8.964162920006    -8.613936915818     5.672276979199    15.994914619570
         H           -8.307339793477    -6.792631140424     1.794014898710     1.007825032230
         H           -7.747445311957    -4.676669081926    -0.112832523389     1.007825032230
         O           -7.211115337277    -6.323947691857     0.405886526610    15.994914619570
      Gh(H)          -4.302224196536    -7.126406662950     2.431219209858     1.007825032230
      Gh(H)          -2.443377140831    -9.105704861891     3.444638512857     1.007825032230
      Gh(O)          -3.545619051932    -7.770519812812     3.969004442464    15.994914619570

  Running in c1 symmetry.

  Rotational constants: A =      0.16673  B =      0.00946  C =      0.00922 [cm^-1]
  Rotational constants: A =   4998.54537  B =    283.54595  C =    276.30011 [MHz]
  Nuclear repulsion =    9.140320658561581

  Charge       = 0
  Multiplicity = 1
  Electrons    = 10
  Nalpha       = 5
  Nbeta        = 5

  ==> Algorithm <==

  SCF Algorithm Type is PK.
  DIIS enabled.
  MOM disabled.
  Fractional occupation disabled.
  Guess Type is SAD.
  Energy threshold   = 1.00e-10
  Density threshold  = 1.00e-10
  Integral threshold = 1.00e-12

  ==> Primary Basis <==

  Basis Set: AUG-CC-PVTZ
    Blend: AUG-CC-PVTZ
    Number of shells: 96
    Number of basis functions: 276
    Number of Cartesian functions: 315
    Spherical Harmonics?: true
    Max angular momentum: 3

  ==> Integral Setup <==

  Using in-core PK algorithm.
   Calculation information:
      Number of atoms:                   9
      Number of AO shells:              96
      Number of primitives:            156
      Number of atomic orbitals:       315
      Number of basis functions:       276

      Integral cutoff                 1.00e-12
      Number of threads:                 1

  Performing in-core PK
  Using 1461265302 doubles for integral storage.
  We computed 10066860 shell quartets total.
  Whereas there are 10841496 unique shell quartets.

  ==> DiskJK: Disk-Based J/K Matrices <==

    J tasked:                  Yes
    K tasked:                  Yes
    wK tasked:                  No
    Memory [MiB]:            14305
    Schwarz Cutoff:          1E-12

    OpenMP threads:              1

  Minimum eigenvalue in the overlap matrix is 1.6302493532E-04.
  Reciprocal condition number of the overlap matrix is 1.4268811080E-05.
    Using symmetric orthogonalization.

  ==> Pre-Iterations <==

  SCF Guess: Superposition of Atomic Densities via on-the-fly atomic UHF (no occupation information).

   -------------------------
    Irrep   Nso     Nmo    
   -------------------------
     A        276     276 
   -------------------------
    Total     276     276
   -------------------------

  ==> Iterations <==

                        Total Energy        Delta E     RMS |[F,P]|

   @RHF iter SAD:   -75.47046006626286   -7.54705e+01   0.00000e+00 
   @RHF iter   1:   -75.97591401703718   -5.05454e-01   1.69655e-03 DIIS/ADIIS
   @RHF iter   2:   -76.02827130250780   -5.23573e-02   1.15895e-03 DIIS/ADIIS
   @RHF iter   3:   -76.05984060767567   -3.15693e-02   7.89582e-05 DIIS
   @RHF iter   4:   -76.06023683840202   -3.96231e-04   1.89842e-05 DIIS
   @RHF iter   5:   -76.06026187889702   -2.50405e-05   4.32260e-06 DIIS
   @RHF iter   6:   -76.06026394345007   -2.06455e-06   9.54405e-07 DIIS
   @RHF iter   7:   -76.06026405451597   -1.11066e-07   1.75004e-07 DIIS
   @RHF iter   8:   -76.06026405780115   -3.28518e-09   2.93075e-08 DIIS
   @RHF iter   9:   -76.06026405787431   -7.31575e-11   7.33482e-09 DIIS
   @RHF iter  10:   -76.06026405787848   -4.17799e-12   1.04752e-09 DIIS
   @RHF iter  11:   -76.06026405787860   -1.13687e-13   1.68619e-10 DIIS
   @RHF iter  12:   -76.06026405787904   -4.40536e-13   3.62568e-11 DIIS
  Energy and wave function converged.


  ==> Post-Iterations <==

    Orbital Energies [Eh]
    ---------------------

    Doubly Occupied:                                                      

       1A    -20.567375     2A     -1.349799     3A     -0.717363  
       4A     -0.581184     5A     -0.509500  

    Virtual:                                                              

       6A      0.021014     7A      0.040952     8A      0.044588  
       9A      0.058392    10A      0.069033    11A      0.074649  
      12A      0.108425    13A      0.123297    14A      0.139959  
      15A      0.148130    16A      0.153881    17A      0.168632  
      18A      0.179487    19A      0.185361    20A      0.198208  
      21A      0.205125    22A      0.223471    23A      0.241795  
      24A      0.248471    25A      0.277295    26A      0.278430  
      27A      0.285978    28A      0.317985    29A      0.320975  
      30A      0.331602    31A      0.347996    32A      0.359674  
      33A      0.362840    34A      0.372344    35A      0.382874  
      36A      0.395140    37A      0.401289    38A      0.408735  
      39A      0.422154    40A      0.436173    41A      0.456713  
      42A      0.458623    43A      0.464715    44A      0.515151  
      45A      0.519754    46A      0.532696    47A      0.552034  
      48A      0.615006    49A      0.659955    50A      0.693693  
      51A      0.700875    52A      0.725158    53A      0.752062  
      54A      0.761127    55A      0.765842    56A      0.777201  
      57A      0.782554    58A      0.801467    59A      0.813574  
      60A      0.821277    61A      0.829083    62A      0.851778  
      63A      0.852910    64A      0.862240    65A      0.874546  
      66A      0.883806    67A      0.891175    68A      0.910437  
      69A      0.926025    70A      0.933225    71A      0.945057  
      72A      0.954507    73A      0.974649    74A      0.981159  
      75A      0.991503    76A      1.004804    77A      1.022344  
      78A      1.036891    79A      1.043013    80A      1.061387  
      81A      1.079084    82A      1.086133    83A      1.098245  
      84A      1.115326    85A      1.141837    86A      1.143298  
      87A      1.154040    88A      1.168528    89A      1.200528  
      90A      1.214463    91A      1.239497    92A      1.261113  
      93A      1.283116    94A      1.303918    95A      1.314229  
      96A      1.322110    97A      1.343215    98A      1.374199  
      99A      1.403039   100A      1.424559   101A      1.462732  
     102A      1.493858   103A      1.516260   104A      1.565492  
     105A      1.568620   106A      1.582044   107A      1.602835  
     108A      1.627464   109A      1.659325   110A      1.679399  
     111A      1.712058   112A      1.756938   113A      1.764222  
     114A      1.791948   115A      1.820082   116A      1.850770  
     117A      1.854211   118A      1.858631   119A      1.902400  
     120A      1.910899   121A      1.938564   122A      1.955866  
     123A      2.037894   124A      2.061964   125A      2.106938  
     126A      2.174129   127A      2.235934   128A      2.319585  
     129A      2.366134   130A      2.420338   131A      2.440993  
     132A      2.477364   133A      2.497178   134A      2.517914  
     135A      2.519502   136A      2.542226   137A      2.560062  
     138A      2.572057   139A      2.594111   140A      2.603922  
     141A      2.621333   142A      2.655411   143A      2.659973  
     144A      2.700341   145A      2.716934   146A      2.729036  
     147A      2.767151   148A      2.785334   149A      2.822859  
     150A      2.889579   151A      2.892247   152A      2.937248  
     153A      2.950918   154A      2.981921   155A      2.998339  
     156A      3.020137   157A      3.045156   158A      3.087515  
     159A      3.200417   160A      3.254142   161A      3.276826  
     162A      3.291717   163A      3.343285   164A      3.383326  
     165A      3.411115   166A      3.444337   167A      3.483920  
     168A      3.508920   169A      3.572179   170A      3.652668  
     171A      3.777208   172A      3.815837   173A      3.929073  
     174A      3.963334   175A      4.115415   176A      4.263501  
     177A      4.296717   178A      4.347940   179A      4.410907  
     180A      4.433113   181A      4.440479   182A      4.489824  
     183A      4.524646   184A      4.533310   185A      4.574243  
     186A      4.577625   187A      4.612017   188A      4.630515  
     189A      4.672755   190A      4.688198   191A      4.714315  
     192A      4.718363   193A      4.756582   194A      4.813655  
     195A      4.866972   196A      4.915178   197A      4.965702  
     198A      5.015682   199A      5.030354   200A      5.047901  
     201A      5.065837   202A      5.166821   203A      5.185710  
     204A      5.208901   205A      5.272172   206A      5.306927  
     207A      5.353325   208A      5.414356   209A      5.466473  
     210A      5.521415   211A      5.540721   212A      5.619449  
     213A      5.643226   214A      5.722285   215A      5.735618  
     216A      5.743312   217A      5.793493   218A      5.883653  
     219A      5.946450   220A      6.200580   221A      6.277668  
     222A      6.362802   223A      6.449185   224A      6.507354  
     225A      6.655202   226A      6.685356   227A      6.737307  
     228A      6.861455   229A      6.974112   230A      7.070010  
     231A      7.126246   232A      7.235088   233A      7.347995  
     234A      7.390325   235A      7.412917   236A      7.448660  
     237A      7.469982   238A      7.729849   239A      7.744212  
     240A      7.777135   241A      7.824456   242A      7.922447  
     243A      7.964847   244A      7.994041   245A      8.104634  
     246A      8.165266   247A      8.234709   248A      8.255052  
     249A      8.315750   250A      8.426442   251A      8.800703  
     252A      8.879306   253A      8.881112   254A      8.908673  
     255A      9.012264   256A      9.749151   257A      9.799406  
     258A      9.959147   259A      9.983370   260A     10.065678  
     261A     10.123191   262A     10.270139   263A     10.321229  
     264A     11.212256   265A     11.273054   266A     11.802996  
     267A     11.953167   268A     12.178299   269A     12.300433  
     270A     13.572759   271A     13.662275   272A     13.928690  
     273A     14.009051   274A     16.455998   275A     65.467842  
     276A     66.228856  

    Final Occupation by Irrep:
              A 
    DOCC [     5 ]
    NA   [     5 ]
    NB   [     5 ]

  @RHF Final Energy:   -76.06026405787904

   => Energetics <=

    Nuclear Repulsion Energy =              9.1403206585615813
    One-Electron Energy =                -122.9507274253741116
    Two-Electron Energy =                  37.7501427089334953
    Total Energy =                        -76.0602640578790385

Computation Completed


Properties will be evaluated at   0.000000,   0.000000,   0.000000 [a0]

Properties computed using the SCF density matrix


 Multipole Moments:

 ------------------------------------------------------------------------------------
     Multipole            Electronic (a.u.)      Nuclear  (a.u.)        Total (a.u.)
 ------------------------------------------------------------------------------------

 L = 1.  Multiply by 2.5417464519 to convert [e a0] to [Debye]
 Dipole X            :         73.1691071          -73.7437078           -0.5746007
 Dipole Y            :         62.4769972          -62.0608818            0.4161154
 Dipole Z            :         -4.6235184            4.9282746            0.3047562
 Magnitude           :                                                    0.7721362

 ------------------------------------------------------------------------------------

*** tstop() called on d-19-15-2 at Wed Sep 20 04:36:21 2023
Module time:
	user time   =      87.15 seconds =       1.45 minutes
	system time =       4.25 seconds =       0.07 minutes
	total time  =        104 seconds =       1.73 minutes
Total time:
	user time   =  135907.82 seconds =    2265.13 minutes
	system time =   69591.00 seconds =    1159.85 minutes
	total time  =     229677 seconds =    3827.95 minutes
 MINTS: Wrapper to libmints.
   by Justin Turney

   Calculation information:
      Number of threads:                 1
      Number of atoms:                   9
      Number of AO shells:              96
      Number of SO shells:              96
      Number of primitives:            156
      Number of atomic orbitals:       315
      Number of basis functions:       276

      Number of irreps:                  1
      Integral cutoff                 1.00e-12
      Number of functions per irrep: [ 276 ]

 OEINTS: Overlap, kinetic, potential, dipole, and quadrupole integrals
         stored in file 35.

      Computing two-electron integrals...done
      Computed 643318463 non-zero two-electron integrals.
        Stored in file 33.


*** tstart() called on d-19-15-2
*** at Wed Sep 20 04:37:45 2023


	Wfn Parameters:
	--------------------
	Wavefunction         = CCSD_T
	Number of irreps     = 1
	Number of MOs        = 276
	Number of active MOs = 276
	AO-Basis             = NONE
	Semicanonical        = false
	Reference            = RHF
	Print Level          = 1

	IRREP	# MOs	# FZDC	# DOCC	# SOCC	# VIRT	# FZVR
	-----	-----	------	------	------	------	------
	 A	   276	    0	    5	    0	    271	    0
	Transforming integrals...
	IWL integrals will be deleted.
	(OO|OO)...
	Presorting SO-basis two-electron integrals.
	Sorting File: SO Ints (nn|nn) nbuckets = 1
	Constructing frozen core operators
	Starting first half-transformation.
	Sorting half-transformed integrals.
	First half integral transformation complete.
	Starting second half-transformation.
	Two-electron integral transformation complete.
	(OO|OV)...
	Starting second half-transformation.
	Two-electron integral transformation complete.
	(OO|VV)...
	Starting second half-transformation.
	Two-electron integral transformation complete.
	(OV|OO)...
	Starting first half-transformation.
	Sorting half-transformed integrals.
	First half integral transformation complete.
	Starting second half-transformation.
	Two-electron integral transformation complete.
	(OV|OV)...
	Starting second half-transformation.
	Two-electron integral transformation complete.
	(OV|VV)...
	Starting second half-transformation.
	Two-electron integral transformation complete.
	(VV|OO)...
	Starting first half-transformation.
	Sorting half-transformed integrals.
	First half integral transformation complete.
	Starting second half-transformation.
	Two-electron integral transformation complete.
	(VV|OV)...
	Starting second half-transformation.
	Two-electron integral transformation complete.
	(VV|VV)...
	Starting second half-transformation.
	Two-electron integral transformation complete.
	Frozen core energy     =      0.00000000000000

	Size of irrep 0 of <ab|cd> integrals:   5393.580 (MW) /  43148.644 (MB)
	Total:                                  5393.580 (MW) /  43148.644 (MB)

	Size of irrep 0 of <ia|bc> integrals:     99.513 (MW) /    796.100 (MB)
	Total:                                    99.513 (MW) /    796.100 (MB)

	Size of irrep 0 of tijab amplitudes:       1.836 (MW) /     14.688 (MB)
	Total:                                     1.836 (MW) /     14.688 (MB)

	Nuclear Rep. energy          =      9.14032065856158
	SCF energy                   =    -76.06026405787904
	One-electron energy          =   -122.95072743175986
	Two-electron energy          =     37.75014271531953
	Reference energy             =    -76.06026405787875

*** tstop() called on d-19-15-2 at Wed Sep 20 04:57:18 2023
Module time:
	user time   =     546.54 seconds =       9.11 minutes
	system time =     366.29 seconds =       6.10 minutes
	total time  =       1173 seconds =      19.55 minutes
Total time:
	user time   =  136499.15 seconds =    2274.99 minutes
	system time =   69974.68 seconds =    1166.24 minutes
	total time  =     230934 seconds =    3848.90 minutes
            **************************
            *                        *
            *        CCENERGY        *
            *                        *
            **************************

    Nuclear Rep. energy (wfn)     =    9.140320658561581
    SCF energy          (wfn)     =  -76.060264057879039
    Reference energy    (file100) =  -76.060264057878754

    Input parameters:
    -----------------
    Wave function   =     CCSD_T
    Reference wfn   =     RHF
    Brueckner       =     No
    Memory (Mbytes) =     20000.0
    Maxiter         =     50
    R_Convergence   =     1.0e-07
    E_Convergence   =     1.0e-10
    Restart         =     Yes
    DIIS            =     Yes
    AO Basis        =     NONE
    ABCD            =     NEW
    Cache Level     =     2
    Cache Type      =     LOW
    Print Level     =     1
    Num. of threads =     1
    # Amps to Print =     10
    Print MP2 Amps? =     No
    Analyze T2 Amps =     No
    Print Pair Ener =     No
    Local CC        =     No
    SCS-MP2         =     False
    SCSN-MP2        =     False
    SCS-CCSD        =     False

MP2 correlation energy -0.2847856733395940
                Solving CC Amplitude Equations
                ------------------------------
  Iter             Energy              RMS        T1Diag      D1Diag    New D1Diag    D2Diag
  ----     ---------------------    ---------   ----------  ----------  ----------   --------
     0        -0.284785673339594    0.000e+00    0.000000    0.000000    0.000000    0.118204
     1        -0.283086241181964    3.549e-02    0.007593    0.017081    0.017081    0.120544
     2        -0.288120152480373    1.250e-02    0.007437    0.016862    0.016862    0.125035
     3        -0.289462253308967    4.884e-03    0.008615    0.020058    0.020058    0.127163
     4        -0.289335173841339    1.069e-03    0.008772    0.020520    0.020520    0.127354
     5        -0.289343872468473    4.037e-04    0.008857    0.020814    0.020814    0.127410
     6        -0.289351565158293    1.086e-04    0.008879    0.020900    0.020900    0.127410
     7        -0.289349985604881    3.927e-05    0.008885    0.020924    0.020924    0.127402
     8        -0.289349263022596    1.193e-05    0.008886    0.020930    0.020930    0.127400
     9        -0.289349365779395    4.331e-06    0.008887    0.020933    0.020933    0.127400
    10        -0.289349177777502    1.533e-06    0.008887    0.020933    0.020933    0.127399
    11        -0.289349162616513    5.196e-07    0.008887    0.020933    0.020933    0.127399
    12        -0.289349153353118    2.206e-07    0.008887    0.020933    0.020933    0.127399
    13        -0.289349148921093    8.046e-08    0.008887    0.020933    0.020933    0.127399
    14        -0.289349148712191    2.924e-08    0.008887    0.020933    0.020933    0.127399
    15        -0.289349148987982    1.036e-08    0.008887    0.020933    0.020933    0.127399
    16        -0.289349148973438    3.734e-09    0.008887    0.020933    0.020933    0.127399
    17        -0.289349148968702    1.349e-09    0.008887    0.020933    0.020933    0.127399

    Iterations converged.


    Largest TIA Amplitudes:
              4  11        -0.0083251869
              4  15         0.0074210595
              4  39         0.0056677531
              4   3        -0.0055598839
              3   6         0.0045106308
              3  15         0.0044653613
              4  33         0.0044049455
              4  29         0.0042322152
              4   6        -0.0041459206
              4  23        -0.0040904037

    Largest TIjAb Amplitudes:
      2   2  42  42        -0.0106644199
      3   3  42  42        -0.0091347601
      2   2  35  35        -0.0088140706
      4   4  39  39        -0.0078822446
      0   0 268 268        -0.0066983642
      2   2  41  41        -0.0065555495
      2   2  35  72         0.0058119220
      2   2  72  35         0.0058119220
      2   2  36  42         0.0054718591
      2   2  42  36         0.0054718591

    SCF energy       (wfn)                    =  -76.060264057879039
    Reference energy (file100)                =  -76.060264057878754

    Opposite-spin MP2 correlation energy      =   -0.216305016882425
    Same-spin MP2 correlation energy          =   -0.068480656457169
    Singles MP2 correlation energy            =   -0.000000000000000
    MP2 correlation energy                    =   -0.284785673339594
      * MP2 total energy                      =  -76.345049731218353

    Opposite-spin CCSD correlation energy     =   -0.228298288995517
    Same-spin CCSD correlation energy         =   -0.061050859973185
    Singles CCSD correlation energy           =    0.000000000000000
    CCSD correlation energy                   =   -0.289349148968702
      * CCSD total energy                     =  -76.349613206847451

            **************************
            *                        *
            *        CCTRIPLES       *
            *                        *
            **************************


    Wave function   =    CCSD_T
    Reference wfn   =      RHF

    Nuclear Rep. energy (wfn)                =    9.140320658561581
    SCF energy          (wfn)                =  -76.060264057879039
    Reference energy    (file100)            =  -76.060264057878754
    CCSD energy         (file100)            =   -0.289349148968702
    Total CCSD energy   (file100)            =  -76.349613206847451

    Number of ijk index combinations:               35
    Memory available in words               :      2500000000
    Approx. words needed per explicit thread:        79610044
    Number of threads for explicit ijk threading:    1

    MKL num_threads set to 1 for explicit threading.

    (T) energy                                =   -0.008848017524000
      * CCSD(T) total energy                  =  -76.358461224371453


    Psi4 stopped on: Wednesday, 20 September 2023 05:10AM
    Psi4 wall time for execution: 0:36:17.92


    -----------------------------------------------------------------------
          Psi4: An Open-Source Ab Initio Electronic Structure Package
                               Psi4 1.7 release

                         Git: Rev {HEAD} 6ce35a5 


    D. G. A. Smith, L. A. Burns, A. C. Simmonett, R. M. Parrish,
    M. C. Schieber, R. Galvelis, P. Kraus, H. Kruse, R. Di Remigio,
    A. Alenaizan, A. M. James, S. Lehtola, J. P. Misiewicz, M. Scheurer,
    R. A. Shaw, J. B. Schriber, Y. Xie, Z. L. Glick, D. A. Sirianni,
    J. S. O'Brien, J. M. Waldrop, A. Kumar, E. G. Hohenstein,
    B. P. Pritchard, B. R. Brooks, H. F. Schaefer III, A. Yu. Sokolov,
    K. Patkowski, A. E. DePrince III, U. Bozkaya, R. A. King,
    F. A. Evangelista, J. M. Turney, T. D. Crawford, C. D. Sherrill,
    J. Chem. Phys. 152(18) 184108 (2020). https://doi.org/10.1063/5.0006002

                            Additional Code Authors
    E. T. Seidl, C. L. Janssen, E. F. Valeev, M. L. Leininger,
    J. F. Gonthier, R. M. Richard, H. R. McAlexander, M. Saitow, X. Wang,
    P. Verma, M. H. Lechner, A. Jiang, S. Behnle, A. G. Heide,
    M. F. Herbst, and D. L. Poole

             Previous Authors, Complete List of Code Contributors,
                       and Citations for Specific Modules
    https://github.com/psi4/psi4/blob/master/codemeta.json
    https://github.com/psi4/psi4/graphs/contributors
    http://psicode.org/psi4manual/master/introduction.html#citing-psifour

    -----------------------------------------------------------------------


    Psi4 started on: Sunday, 17 September 2023 12:48PM

    Process ID: 258105
    Host:       d-19-15-2
    PSIDATADIR: /home/gridsan/kfisher/.conda/envs/p4env/share/psi4
    Memory:     18.6 GiB
    Threads:    1
    
  ==> Input QCSchema <==

--------------------------------------------------------------------------
{'driver': 'energy',
 'extras': {'psiapi': True, 'wfn_qcvars_only': True},
 'id': None,
 'keywords': {'D_CONVERGENCE': 1e-10, 'E_CONVERGENCE': 1e-10, 'function_kwargs': {}},
 'model': {'basis': 'aug-cc-pvtz', 'method': 'ccsd(t)'},
 'molecule': {'atom_labels': ['', '', '', '', '', '', '', '', ''],
              'atomic_numbers': [1, 1, 8, 1, 1, 8, 1, 1, 8],
              'fix_com': True,
              'fix_orientation': True,
              'fix_symmetry': 'c1',
              'fragment_charges': [0.0, 0.0, 0.0],
              'fragment_multiplicities': [1, 1, 1],
              'fragments': [[0, 1, 2], [3, 4, 5], [6, 7, 8]],
              'geometry': [-9.595127544459567, -7.930720041186992, 7.223091873439765, -7.14201982586296,
                           -8.651408862077707, 5.849457133803748, -8.964162920005588, -8.613936915818167,
                           5.672276979198659, -8.3073397934769, -6.792631140424466, 1.794014898710415,
                           -7.747445311957429, -4.6766690819255645, -0.11283252338928619, -7.211115337277191,
                           -6.323947691857242, 0.40588652660997254, -4.3022241965361845, -7.12640666295003,
                           2.431219209858042, -2.4433771408314, -9.105704861891496, 3.444638512856765,
                           -3.545619051932405, -7.770519812812331, 3.969004442464117],
              'mass_numbers': [1, 1, 16, 1, 1, 16, 1, 1, 16],
              'masses': [1.00782503223, 1.00782503223, 15.99491461957, 1.00782503223, 1.00782503223, 15.99491461957,
                         1.00782503223, 1.00782503223, 15.99491461957],
              'molecular_charge': 0.0,
              'molecular_multiplicity': 1,
              'name': 'H6O3',
              'provenance': {'creator': 'QCElemental',
                             'routine': 'qcelemental.molparse.from_string',
                             'version': 'v0.25.1'},
              'real': [False, False, False, True, True, True, True, True, True],
              'schema_name': 'qcschema_molecule',
              'schema_version': 2,
              'symbols': ['H', 'H', 'O', 'H', 'H', 'O', 'H', 'H', 'O'],
              'validated': True},
 'protocols': {'stdout': True},
 'provenance': {'creator': 'QCElemental', 'routine': 'qcelemental.models.results', 'version': 'v0.25.1'},
 'schema_name': 'qcschema_input',
 'schema_version': 1}
--------------------------------------------------------------------------

Scratch directory: /home/gridsan/kfisher/scratch/

*** tstart() called on d-19-15-2
*** at Wed Sep 20 05:10:55 2023

   => Loading Basis Set <=

    Name: AUG-CC-PVTZ
    Role: ORBITAL
    Keyword: BASIS
    atoms 1-2, 4-5, 7-8 entry H          line    40 file /home/gridsan/kfisher/.conda/envs/p4env/share/psi4/basis/aug-cc-pvtz.gbs 
    atoms 3, 6, 9       entry O          line   331 file /home/gridsan/kfisher/.conda/envs/p4env/share/psi4/basis/aug-cc-pvtz.gbs 


         ---------------------------------------------------------
                                   SCF
               by Justin Turney, Rob Parrish, Andy Simmonett
                          and Daniel G. A. Smith
                              RHF Reference
                        1 Threads,  19073 MiB Core
         ---------------------------------------------------------

  ==> Geometry <==

    Molecular point group: c1
    Full point group: C1

    Geometry (in Bohr), charge = 0, multiplicity = 1:

       Center              X                  Y                   Z               Mass       
    ------------   -----------------  -----------------  -----------------  -----------------
      Gh(H)          -9.595127544460    -7.930720041187     7.223091873440     1.007825032230
      Gh(H)          -7.142019825863    -8.651408862078     5.849457133804     1.007825032230
      Gh(O)          -8.964162920006    -8.613936915818     5.672276979199    15.994914619570
         H           -8.307339793477    -6.792631140424     1.794014898710     1.007825032230
         H           -7.747445311957    -4.676669081926    -0.112832523389     1.007825032230
         O           -7.211115337277    -6.323947691857     0.405886526610    15.994914619570
         H           -4.302224196536    -7.126406662950     2.431219209858     1.007825032230
         H           -2.443377140831    -9.105704861891     3.444638512857     1.007825032230
         O           -3.545619051932    -7.770519812812     3.969004442464    15.994914619570

  Running in c1 symmetry.

  Rotational constants: A =      0.16673  B =      0.00946  C =      0.00922 [cm^-1]
  Rotational constants: A =   4998.54537  B =    283.54595  C =    276.30011 [MHz]
  Nuclear repulsion =   37.235068265166738

  Charge       = 0
  Multiplicity = 1
  Electrons    = 20
  Nalpha       = 10
  Nbeta        = 10

  ==> Algorithm <==

  SCF Algorithm Type is PK.
  DIIS enabled.
  MOM disabled.
  Fractional occupation disabled.
  Guess Type is SAD.
  Energy threshold   = 1.00e-10
  Density threshold  = 1.00e-10
  Integral threshold = 1.00e-12

  ==> Primary Basis <==

  Basis Set: AUG-CC-PVTZ
    Blend: AUG-CC-PVTZ
    Number of shells: 96
    Number of basis functions: 276
    Number of Cartesian functions: 315
    Spherical Harmonics?: true
    Max angular momentum: 3

  ==> Integral Setup <==

  Using in-core PK algorithm.
   Calculation information:
      Number of atoms:                   9
      Number of AO shells:              96
      Number of primitives:            156
      Number of atomic orbitals:       315
      Number of basis functions:       276

      Integral cutoff                 1.00e-12
      Number of threads:                 1

  Performing in-core PK
  Using 1461265302 doubles for integral storage.
  We computed 10066860 shell quartets total.
  Whereas there are 10841496 unique shell quartets.

  ==> DiskJK: Disk-Based J/K Matrices <==

    J tasked:                  Yes
    K tasked:                  Yes
    wK tasked:                  No
    Memory [MiB]:            14305
    Schwarz Cutoff:          1E-12

    OpenMP threads:              1

  Minimum eigenvalue in the overlap matrix is 1.6302493532E-04.
  Reciprocal condition number of the overlap matrix is 1.4268811080E-05.
    Using symmetric orthogonalization.

  ==> Pre-Iterations <==

  SCF Guess: Superposition of Atomic Densities via on-the-fly atomic UHF (no occupation information).

   -------------------------
    Irrep   Nso     Nmo    
   -------------------------
     A        276     276 
   -------------------------
    Total     276     276
   -------------------------

  ==> Iterations <==

                        Total Energy        Delta E     RMS |[F,P]|

   @RHF iter SAD:  -151.04281495661283   -1.51043e+02   0.00000e+00 
   @RHF iter   1:  -151.97019987282454   -9.27385e-01   2.30644e-03 DIIS/ADIIS
   @RHF iter   2:  -152.07152542216630   -1.01326e-01   1.51078e-03 DIIS/ADIIS
   @RHF iter   3:  -152.12443958952306   -5.29142e-02   1.13113e-04 DIIS/ADIIS
   @RHF iter   4:  -152.12526783937969   -8.28250e-04   2.63146e-05 DIIS
   @RHF iter   5:  -152.12531569863933   -4.78593e-05   7.87089e-06 DIIS
   @RHF iter   6:  -152.12532016476155   -4.46612e-06   3.63114e-06 DIIS
   @RHF iter   7:  -152.12532077567542   -6.10914e-07   7.84076e-07 DIIS
   @RHF iter   8:  -152.12532083788099   -6.22056e-08   1.30615e-07 DIIS
   @RHF iter   9:  -152.12532083956745   -1.68646e-09   2.01245e-08 DIIS
   @RHF iter  10:  -152.12532083960321   -3.57545e-11   5.40536e-09 DIIS
   @RHF iter  11:  -152.12532083960591   -2.70006e-12   1.02680e-09 DIIS
   @RHF iter  12:  -152.12532083960562    2.84217e-13   2.25016e-10 DIIS
   @RHF iter  13:  -152.12532083960625   -6.25278e-13   8.50488e-11 DIIS
  Energy and wave function converged.


  ==> Post-Iterations <==

    Orbital Energies [Eh]
    ---------------------

    Doubly Occupied:                                                      

       1A    -20.588210     2A    -20.539787     3A     -1.374575  
       4A     -1.325150     5A     -0.742527     6A     -0.696591  
       7A     -0.608604     8A     -0.559531     9A     -0.528673  
      10A     -0.485315  

    Virtual:                                                              

      11A      0.022208    12A      0.041085    13A      0.045328  
      14A      0.058746    15A      0.071763    16A      0.078019  
      17A      0.114852    18A      0.129929    19A      0.143832  
      20A      0.153088    21A      0.164259    22A      0.175023  
      23A      0.183236    24A      0.189721    25A      0.207565  
      26A      0.216126    27A      0.235957    28A      0.240133  
      29A      0.247868    30A      0.265831    31A      0.274767  
      32A      0.282624    33A      0.317802    34A      0.325629  
      35A      0.340212    36A      0.352351    37A      0.359251  
      38A      0.370601    39A      0.384797    40A      0.388567  
      41A      0.402082    42A      0.405983    43A      0.424734  
      44A      0.434254    45A      0.444117    46A      0.458299  
      47A      0.468805    48A      0.488175    49A      0.500166  
      50A      0.529980    51A      0.544303    52A      0.559481  
      53A      0.614653    54A      0.636168    55A      0.676683  
      56A      0.682474    57A      0.715166    58A      0.732647  
      59A      0.746900    60A      0.758893    61A      0.776705  
      62A      0.777909    63A      0.791000    64A      0.813583  
      65A      0.818066    66A      0.826017    67A      0.845467  
      68A      0.856407    69A      0.868474    70A      0.871104  
      71A      0.893289    72A      0.902705    73A      0.922027  
      74A      0.926761    75A      0.949614    76A      0.955555  
      77A      0.960126    78A      0.969589    79A      0.985578  
      80A      0.999949    81A      1.009244    82A      1.021941  
      83A      1.033475    84A      1.042278    85A      1.063902  
      86A      1.073751    87A      1.087633    88A      1.101608  
      89A      1.113784    90A      1.129874    91A      1.150128  
      92A      1.177301    93A      1.182513    94A      1.193977  
      95A      1.214785    96A      1.224536    97A      1.263352  
      98A      1.276852    99A      1.293463   100A      1.303438  
     101A      1.322118   102A      1.338088   103A      1.353183  
     104A      1.367802   105A      1.441516   106A      1.451116  
     107A      1.463361   108A      1.514092   109A      1.533792  
     110A      1.539915   111A      1.560608   112A      1.606925  
     113A      1.627721   114A      1.649331   115A      1.682006  
     116A      1.704472   117A      1.722794   118A      1.738357  
     119A      1.772032   120A      1.807874   121A      1.843664  
     122A      1.849700   123A      1.885008   124A      1.925293  
     125A      1.944192   126A      1.947944   127A      1.975461  
     128A      2.063089   129A      2.079717   130A      2.100850  
     131A      2.206263   132A      2.288181   133A      2.314434  
     134A      2.355900   135A      2.404376   136A      2.415069  
     137A      2.445972   138A      2.460669   139A      2.482010  
     140A      2.489166   141A      2.499813   142A      2.512610  
     143A      2.527109   144A      2.563028   145A      2.573121  
     146A      2.585105   147A      2.599448   148A      2.619182  
     149A      2.628929   150A      2.683777   151A      2.701980  
     152A      2.741702   153A      2.767973   154A      2.794347  
     155A      2.795265   156A      2.864557   157A      2.880418  
     158A      2.904118   159A      2.914069   160A      2.940225  
     161A      2.951120   162A      2.977110   163A      2.988867  
     164A      3.014649   165A      3.059046   166A      3.173228  
     167A      3.229964   168A      3.288730   169A      3.346560  
     170A      3.394203   171A      3.454770   172A      3.584759  
     173A      3.760001   174A      3.846516   175A      3.879277  
     176A      3.924554   177A      4.045509   178A      4.100267  
     179A      4.146104   180A      4.238764   181A      4.265956  
     182A      4.282447   183A      4.313265   184A      4.338604  
     185A      4.378109   186A      4.408689   187A      4.427507  
     188A      4.447693   189A      4.480980   190A      4.494732  
     191A      4.539421   192A      4.552506   193A      4.573856  
     194A      4.584827   195A      4.609026   196A      4.675111  
     197A      4.681424   198A      4.725535   199A      4.728226  
     200A      4.748915   201A      4.813534   202A      4.837700  
     203A      4.947653   204A      4.976767   205A      5.018631  
     206A      5.058555   207A      5.061649   208A      5.102537  
     209A      5.176071   210A      5.202988   211A      5.222310  
     212A      5.262073   213A      5.327387   214A      5.362171  
     215A      5.375307   216A      5.411166   217A      5.494708  
     218A      5.556812   219A      5.597331   220A      5.624394  
     221A      5.687002   222A      5.745227   223A      5.771631  
     224A      5.837410   225A      5.908709   226A      6.219445  
     227A      6.286718   228A      6.343302   229A      6.470976  
     230A      6.593047   231A      6.615331   232A      6.710486  
     233A      6.819411   234A      6.841166   235A      6.933829  
     236A      7.005287   237A      7.086095   238A      7.182212  
     239A      7.212478   240A      7.314727   241A      7.338500  
     242A      7.356963   243A      7.380140   244A      7.392686  
     245A      7.410168   246A      7.432715   247A      7.454488  
     248A      7.513683   249A      7.547328   250A      7.721220  
     251A      7.751652   252A      7.828826   253A      7.857854  
     254A      7.947479   255A      7.961733   256A      8.067969  
     257A      8.108262   258A      8.126821   259A      8.216183  
     260A      8.337150   261A      8.816359   262A      8.868845  
     263A      8.900361   264A      8.962667   265A      9.764786  
     266A      9.970073   267A     10.065954   268A     10.278087  
     269A     11.226749   270A     11.832105   271A     12.191935  
     272A     13.588442   273A     13.942614   274A     16.298497  
     275A     16.628452   276A     65.488822  

    Final Occupation by Irrep:
              A 
    DOCC [    10 ]
    NA   [    10 ]
    NB   [    10 ]

  @RHF Final Energy:  -152.12532083960625

   => Energetics <=

    Nuclear Repulsion Energy =             37.2350682651667384
    One-Electron Energy =                -283.8228500058411328
    Two-Electron Energy =                  94.4624609010681411
    Total Energy =                       -152.1253208396062462

Computation Completed


Properties will be evaluated at   0.000000,   0.000000,   0.000000 [a0]

Properties computed using the SCF density matrix


 Multipole Moments:

 ------------------------------------------------------------------------------------
     Multipole            Electronic (a.u.)      Nuclear  (a.u.)        Total (a.u.)
 ------------------------------------------------------------------------------------

 L = 1.  Multiply by 2.5417464519 to convert [e a0] to [Debye]
 Dipole X            :        108.2599967         -108.8542616           -0.5942648
 Dipole Y            :        140.6962137         -140.4571518            0.2390619
 Dipole Z            :        -43.0904909           42.5561679           -0.5343230
 Magnitude           :                                                    0.8341477

 ------------------------------------------------------------------------------------

*** tstop() called on d-19-15-2 at Wed Sep 20 05:12:57 2023
Module time:
	user time   =     102.31 seconds =       1.71 minutes
	system time =      10.87 seconds =       0.18 minutes
	total time  =        122 seconds =       2.03 minutes
Total time:
	user time   =  136893.70 seconds =    2281.56 minutes
	system time =   70354.95 seconds =    1172.58 minutes
	total time  =     231873 seconds =    3864.55 minutes
 MINTS: Wrapper to libmints.
   by Justin Turney

   Calculation information:
      Number of threads:                 1
      Number of atoms:                   9
      Number of AO shells:              96
      Number of SO shells:              96
      Number of primitives:            156
      Number of atomic orbitals:       315
      Number of basis functions:       276

      Number of irreps:                  1
      Integral cutoff                 1.00e-12
      Number of functions per irrep: [ 276 ]

 OEINTS: Overlap, kinetic, potential, dipole, and quadrupole integrals
         stored in file 35.

      Computing two-electron integrals...done
      Computed 643318463 non-zero two-electron integrals.
        Stored in file 33.


*** tstart() called on d-19-15-2
*** at Wed Sep 20 05:14:13 2023


	Wfn Parameters:
	--------------------
	Wavefunction         = CCSD_T
	Number of irreps     = 1
	Number of MOs        = 276
	Number of active MOs = 276
	AO-Basis             = NONE
	Semicanonical        = false
	Reference            = RHF
	Print Level          = 1

	IRREP	# MOs	# FZDC	# DOCC	# SOCC	# VIRT	# FZVR
	-----	-----	------	------	------	------	------
	 A	   276	    0	    10	    0	    266	    0
	Transforming integrals...
	IWL integrals will be deleted.
	(OO|OO)...
	Presorting SO-basis two-electron integrals.
	Sorting File: SO Ints (nn|nn) nbuckets = 1
	Constructing frozen core operators
	Starting first half-transformation.
	Sorting half-transformed integrals.
	First half integral transformation complete.
	Starting second half-transformation.
	Two-electron integral transformation complete.
	(OO|OV)...
	Starting second half-transformation.
	Two-electron integral transformation complete.
	(OO|VV)...
	Starting second half-transformation.
	Two-electron integral transformation complete.
	(OV|OO)...
	Starting first half-transformation.
	Sorting half-transformed integrals.
	First half integral transformation complete.
	Starting second half-transformation.
	Two-electron integral transformation complete.
	(OV|OV)...
	Starting second half-transformation.
	Two-electron integral transformation complete.
	(OV|VV)...
	Starting second half-transformation.
	Two-electron integral transformation complete.
	(VV|OO)...
	Starting first half-transformation.
	Sorting half-transformed integrals.
	First half integral transformation complete.
	Starting second half-transformation.
	Two-electron integral transformation complete.
	(VV|OV)...
	Starting second half-transformation.
	Two-electron integral transformation complete.
	(VV|VV)...
	Starting second half-transformation.
	Two-electron integral transformation complete.
	Frozen core energy     =      0.00000000000000

	Size of irrep 0 of <ab|cd> integrals:   5006.412 (MW) /  40051.292 (MB)
	Total:                                  5006.412 (MW) /  40051.292 (MB)

	Size of irrep 0 of <ia|bc> integrals:    188.211 (MW) /   1505.688 (MB)
	Total:                                   188.211 (MW) /   1505.688 (MB)

	Size of irrep 0 of tijab amplitudes:       7.076 (MW) /     56.605 (MB)
	Total:                                     7.076 (MW) /     56.605 (MB)

	Nuclear Rep. energy          =     37.23506826516674
	SCF energy                   =   -152.12532083960625
	One-electron energy          =   -283.82285009232220
	Two-electron energy          =     94.46246098754952
	Reference energy             =   -152.12532083960593

*** tstop() called on d-19-15-2 at Wed Sep 20 05:34:23 2023
Module time:
	user time   =     528.90 seconds =       8.82 minutes
	system time =     385.04 seconds =       6.42 minutes
	total time  =       1210 seconds =      20.17 minutes
Total time:
	user time   =  137467.80 seconds =    2291.13 minutes
	system time =   70757.05 seconds =    1179.28 minutes
	total time  =     233159 seconds =    3885.98 minutes
            **************************
            *                        *
            *        CCENERGY        *
            *                        *
            **************************

    Nuclear Rep. energy (wfn)     =   37.235068265166738
    SCF energy          (wfn)     = -152.125320839606246
    Reference energy    (file100) = -152.125320839605934

    Input parameters:
    -----------------
    Wave function   =     CCSD_T
    Reference wfn   =     RHF
    Brueckner       =     No
    Memory (Mbytes) =     20000.0
    Maxiter         =     50
    R_Convergence   =     1.0e-07
    E_Convergence   =     1.0e-10
    Restart         =     Yes
    DIIS            =     Yes
    AO Basis        =     NONE
    ABCD            =     NEW
    Cache Level     =     2
    Cache Type      =     LOW
    Print Level     =     1
    Num. of threads =     1
    # Amps to Print =     10
    Print MP2 Amps? =     No
    Analyze T2 Amps =     No
    Print Pair Ener =     No
    Local CC        =     No
    SCS-MP2         =     False
    SCSN-MP2        =     False
    SCS-CCSD        =     False

MP2 correlation energy -0.5718757804556031
                Solving CC Amplitude Equations
                ------------------------------
  Iter             Energy              RMS        T1Diag      D1Diag    New D1Diag    D2Diag
  ----     ---------------------    ---------   ----------  ----------  ----------   --------
     0        -0.571875780455603    0.000e+00    0.000000    0.000000    0.000000    0.119960
     1        -0.568151103820381    5.020e-02    0.007701    0.018233    0.018233    0.120932
     2        -0.578222864634202    1.749e-02    0.007572    0.017945    0.017945    0.125459
     3        -0.580863448283523    6.907e-03    0.008800    0.021570    0.021570    0.127466
     4        -0.580599264212399    1.497e-03    0.008967    0.022085    0.022085    0.127641
     5        -0.580615844536175    5.970e-04    0.009059    0.022469    0.022469    0.127697
     6        -0.580631527339103    1.650e-04    0.009085    0.022578    0.022578    0.127696
     7        -0.580628082543011    6.362e-05    0.009090    0.022613    0.022613    0.127688
     8        -0.580626343893000    2.000e-05    0.009092    0.022623    0.022623    0.127686
     9        -0.580626555585886    7.378e-06    0.009093    0.022626    0.022626    0.127685
    10        -0.580626171390850    2.753e-06    0.009093    0.022627    0.022627    0.127685
    11        -0.580626126872659    1.044e-06    0.009093    0.022627    0.022627    0.127685
    12        -0.580626103408838    4.853e-07    0.009093    0.022627    0.022627    0.127685
    13        -0.580626092371535    1.869e-07    0.009093    0.022627    0.022627    0.127685
[...]
   @RHF iter   6:  -152.12523700010880   -4.46494e-06   5.44599e-06 DIIS
   @RHF iter   7:  -152.12523761053760   -6.10429e-07   1.17456e-06 DIIS
   @RHF iter   8:  -152.12523767254825   -6.20107e-08   1.95390e-07 DIIS
   @RHF iter   9:  -152.12523767422121   -1.67296e-09   3.00513e-08 DIIS
   @RHF iter  10:  -152.12523767425674   -3.55271e-11   8.09699e-09 DIIS
   @RHF iter  11:  -152.12523767425907   -2.33058e-12   1.54735e-09 DIIS
   @RHF iter  12:  -152.12523767425887    1.98952e-13   3.37748e-10 DIIS
   @RHF iter  13:  -152.12523767425819    6.82121e-13   1.27041e-10 DIIS
   @RHF iter  14:  -152.12523767425938   -1.19371e-12   2.84619e-11 DIIS
  Energy and wave function converged.


  ==> Post-Iterations <==

    Orbital Energies [Eh]
    ---------------------

    Doubly Occupied:                                                      

       1A    -20.588243     2A    -20.539902     3A     -1.374610  
       4A     -1.325211     5A     -0.742560     6A     -0.696649  
       7A     -0.608640     8A     -0.559578     9A     -0.528697  
      10A     -0.485324  

    Virtual:                                                              

      11A      0.024990    12A      0.044501    13A      0.049395  
      14A      0.074169    15A      0.121230    16A      0.143838  
      17A      0.165485    18A      0.171976    19A      0.177035  
      20A      0.186248    21A      0.217554    22A      0.225970  
      23A      0.235810    24A      0.246663    25A      0.260513  
      26A      0.272339    27A      0.307293    28A      0.318055  
      29A      0.358806    30A      0.376335    31A      0.383647  
      32A      0.410374    33A      0.422675    34A      0.441941  
      35A      0.452861    36A      0.459665    37A      0.490342  
      38A      0.546130    39A      0.601861    40A      0.629030  
      41A      0.658629    42A      0.690114    43A      0.714652  
      44A      0.726021    45A      0.748726    46A      0.760447  
      47A      0.769004    48A      0.798581    49A      0.842800  
      50A      0.860246    51A      0.877715    52A      0.884927  
      53A      0.915769    54A      0.935323    55A      0.939545  
      56A      0.949635    57A      0.964135    58A      0.972753  
      59A      0.989873    60A      1.016593    61A      1.025222  
      62A      1.037186    63A      1.054575    64A      1.083127  
      65A      1.101943    66A      1.127398    67A      1.151860  
      68A      1.167684    69A      1.196878    70A      1.213470  
      71A      1.235027    72A      1.252714    73A      1.330881  
      74A      1.336617    75A      1.355919    76A      1.436975  
      77A      1.461451    78A      1.467973    79A      1.563141  
      80A      1.580419    81A      1.625582    82A      1.657434  
      83A      1.688651    84A      1.749409    85A      1.809780  
      86A      1.870354    87A      1.925370    88A      1.996437  
      89A      2.031105    90A      2.091282    91A      2.150892  
      92A      2.271613    93A      2.309069    94A      2.317626  
      95A      2.373841    96A      2.396525    97A      2.434134  
      98A      2.454261    99A      2.464551   100A      2.480604  
     101A      2.483246   102A      2.512336   103A      2.552634  
     104A      2.608641   105A      2.649146   106A      2.675707  
     107A      2.703927   108A      2.754665   109A      2.790343  
     110A      2.816208   111A      2.861955   112A      2.886661  
     113A      2.933393   114A      2.948220   115A      2.970700  
     116A      3.157749   117A      3.764350   118A      3.770372  
     119A      3.818743   120A      3.996551   121A      4.077212  
     122A      4.104054   123A      4.193783   124A      4.216901  
     125A      4.244411   126A      4.258955   127A      4.298252  
     128A      4.323915   129A      4.374889   130A      4.381285  
     131A      4.410328   132A      4.443621   133A      4.469905  
     134A      4.476907   135A      4.533503   136A      4.621156  
     137A      4.675105   138A      4.723511   139A      4.752169  
     140A      4.819149   141A      4.884995   142A      4.990630  
     143A      5.154869   144A      5.172503   145A      5.188677  
     146A      5.233081   147A      5.306333   148A      5.327914  
     149A      5.356790   150A      5.435320   151A      5.573913  
     152A      5.600780   153A      5.745347   154A      5.767610  
     155A      6.236614   156A      6.269529   157A      6.560777  
     158A      6.577399   159A      6.770556   160A      6.799455  
     161A      6.902567   162A      6.958794   163A      7.139751  
     164A      7.184676   165A      7.284040   166A      7.298263  
     167A      7.318723   168A      7.330297   169A      7.337075  
     170A      7.373283   171A      7.379491   172A      7.403454  
     173A      7.484438   174A      7.521604   175A      7.666164  
     176A      7.769013   177A      7.907997   178A      7.928142  
     179A      8.049897   180A      8.098005   181A      8.846225  
     182A      8.877346   183A     16.007407   184A     16.440346  

    Final Occupation by Irrep:
              A 
    DOCC [    10 ]
    NA   [    10 ]
    NB   [    10 ]

  @RHF Final Energy:  -152.12523767425938

   => Energetics <=

    Nuclear Repulsion Energy =             37.2350682651667384
    One-Electron Energy =                -283.8217856800494587
    Two-Electron Energy =                  94.4614797406233322
    Total Energy =                       -152.1252376742593810

Computation Completed


Properties will be evaluated at   0.000000,   0.000000,   0.000000 [a0]

Properties computed using the SCF density matrix


 Multipole Moments:

 ------------------------------------------------------------------------------------
     Multipole            Electronic (a.u.)      Nuclear  (a.u.)        Total (a.u.)
 ------------------------------------------------------------------------------------

 L = 1.  Multiply by 2.5417464519 to convert [e a0] to [Debye]
 Dipole X            :        108.2601082         -108.8542616           -0.5941534
 Dipole Y            :        140.6961860         -140.4571518            0.2390343
 Dipole Z            :        -43.0910974           42.5561679           -0.5349295
 Magnitude           :                                                    0.8344490

 ------------------------------------------------------------------------------------

*** tstop() called on d-19-15-2 at Wed Sep 20 10:41:25 2023
Module time:
	user time   =      18.95 seconds =       0.32 minutes
	system time =       1.05 seconds =       0.02 minutes
	total time  =         21 seconds =       0.35 minutes
Total time:
	user time   =  148731.95 seconds =    2478.87 minutes
	system time =   76685.14 seconds =    1278.09 minutes
	total time  =     251581 seconds =    4193.02 minutes
 MINTS: Wrapper to libmints.
   by Justin Turney

   Calculation information:
      Number of threads:                 1
      Number of atoms:                   6
      Number of AO shells:              64
      Number of SO shells:              64
      Number of primitives:            104
      Number of atomic orbitals:       210
      Number of basis functions:       184

      Number of irreps:                  1
      Integral cutoff                 1.00e-12
      Number of functions per irrep: [ 184 ]

 OEINTS: Overlap, kinetic, potential, dipole, and quadrupole integrals
         stored in file 35.

      Computing two-electron integrals...done
      Computed 135661903 non-zero two-electron integrals.
        Stored in file 33.


*** tstart() called on d-19-15-2
*** at Wed Sep 20 10:41:36 2023


	Wfn Parameters:
	--------------------
	Wavefunction         = CCSD_T
	Number of irreps     = 1
	Number of MOs        = 184
	Number of active MOs = 184
	AO-Basis             = NONE
	Semicanonical        = false
	Reference            = RHF
	Print Level          = 1

	IRREP	# MOs	# FZDC	# DOCC	# SOCC	# VIRT	# FZVR
	-----	-----	------	------	------	------	------
	 A	   184	    0	    10	    0	    174	    0
	Transforming integrals...
	IWL integrals will be deleted.
	(OO|OO)...
	Presorting SO-basis two-electron integrals.
	Sorting File: SO Ints (nn|nn) nbuckets = 1
	Constructing frozen core operators
	Starting first half-transformation.
	Sorting half-transformed integrals.
	First half integral transformation complete.
	Starting second half-transformation.
	Two-electron integral transformation complete.
	(OO|OV)...
	Starting second half-transformation.
	Two-electron integral transformation complete.
	(OO|VV)...
	Starting second half-transformation.
	Two-electron integral transformation complete.
	(OV|OO)...
	Starting first half-transformation.
	Sorting half-transformed integrals.
	First half integral transformation complete.
	Starting second half-transformation.
	Two-electron integral transformation complete.
	(OV|OV)...
	Starting second half-transformation.
	Two-electron integral transformation complete.
	(OV|VV)...
	Starting second half-transformation.
	Two-electron integral transformation complete.
	(VV|OO)...
	Starting first half-transformation.
	Sorting half-transformed integrals.
	First half integral transformation complete.
	Starting second half-transformation.
	Two-electron integral transformation complete.
	(VV|OV)...
	Starting second half-transformation.
	Two-electron integral transformation complete.
	(VV|VV)...
	Starting second half-transformation.
	Two-electron integral transformation complete.
	Frozen core energy     =      0.00000000000000

	Size of irrep 0 of <ab|cd> integrals:    916.636 (MW) /   7333.089 (MB)
	Total:                                   916.636 (MW) /   7333.089 (MB)

	Size of irrep 0 of <ia|bc> integrals:     52.680 (MW) /    421.442 (MB)
	Total:                                    52.680 (MW) /    421.442 (MB)

	Size of irrep 0 of tijab amplitudes:       3.028 (MW) /     24.221 (MB)
	Total:                                     3.028 (MW) /     24.221 (MB)

	Nuclear Rep. energy          =     37.23506826516674
	SCF energy                   =   -152.12523767425938
	One-electron energy          =   -283.82178567194399
	Two-electron energy          =     94.46147973251810
	Reference energy             =   -152.12523767425913

*** tstop() called on d-19-15-2 at Wed Sep 20 10:43:39 2023
Module time:
	user time   =      67.04 seconds =       1.12 minutes
	system time =      54.16 seconds =       0.90 minutes
	total time  =        123 seconds =       2.05 minutes
Total time:
	user time   =  148807.56 seconds =    2480.13 minutes
	system time =   76742.26 seconds =    1279.04 minutes
	total time  =     251715 seconds =    4195.25 minutes
            **************************
            *                        *
            *        CCENERGY        *
            *                        *
            **************************

    Nuclear Rep. energy (wfn)     =   37.235068265166738
    SCF energy          (wfn)     = -152.125237674259381
    Reference energy    (file100) = -152.125237674259125

    Input parameters:
    -----------------
    Wave function   =     CCSD_T
    Reference wfn   =     RHF
    Brueckner       =     No
    Memory (Mbytes) =     20000.0
    Maxiter         =     50
    R_Convergence   =     1.0e-07
    E_Convergence   =     1.0e-10
    Restart         =     Yes
    DIIS            =     Yes
    AO Basis        =     NONE
    ABCD            =     NEW
    Cache Level     =     2
    Cache Type      =     LOW
    Print Level     =     1
    Num. of threads =     1
    # Amps to Print =     10
    Print MP2 Amps? =     No
    Analyze T2 Amps =     No
    Print Pair Ener =     No
    Local CC        =     No
    SCS-MP2         =     False
    SCSN-MP2        =     False
    SCS-CCSD        =     False

MP2 correlation energy -0.5711509680402259
                Solving CC Amplitude Equations
                ------------------------------
  Iter             Energy              RMS        T1Diag      D1Diag    New D1Diag    D2Diag
  ----     ---------------------    ---------   ----------  ----------  ----------   --------
     0        -0.571150968040226    0.000e+00    0.000000    0.000000    0.000000    0.119950
     1        -0.567449690039226    5.018e-02    0.007702    0.018237    0.018237    0.120930
     2        -0.577517979466344    1.745e-02    0.007576    0.017957    0.017957    0.125461
     3        -0.580154345336834    6.892e-03    0.008809    0.021601    0.021601    0.127468
     4        -0.579883303771259    1.474e-03    0.008974    0.022117    0.022117    0.127640
     5        -0.579903814775931    5.827e-04    0.009067    0.022504    0.022504    0.127696
     6        -0.579918144243753    1.562e-04    0.009091    0.022608    0.022608    0.127694
     7        -0.579914395622591    6.062e-05    0.009097    0.022642    0.022642    0.127685
     8        -0.579912838237263    1.868e-05    0.009098    0.022651    0.022651    0.127683
     9        -0.579913085318066    7.131e-06    0.009099    0.022655    0.022655    0.127683
    10        -0.579912688180957    2.669e-06    0.009099    0.022655    0.022655    0.127683
    11        -0.579912656721929    9.854e-07    0.009099    0.022655    0.022655    0.127683
    12        -0.579912634648614    4.674e-07    0.009099    0.022655    0.022655    0.127683
    13        -0.579912624163862    1.782e-07    0.009099    0.022655    0.022655    0.127683
    14        -0.579912624009152    6.785e-08    0.009099    0.022655    0.022655    0.127683
    15        -0.579912624848123    2.687e-08    0.009099    0.022655    0.022655    0.127683
    16        -0.579912624701914    1.014e-08    0.009099    0.022655    0.022655    0.127683
    17        -0.579912624661289    4.083e-09    0.009099    0.022655    0.022655    0.127683
    18        -0.579912624672796    1.564e-09    0.009099    0.022655    0.022655    0.127683

    Iterations converged.


    Largest TIA Amplitudes:
              9   7        -0.0104126949
              8   4         0.0088231024
              9  17        -0.0074555619
              9   8        -0.0073838181
              8  16         0.0072917660
              7  21         0.0068419388
              6   4        -0.0067231882
              8   6         0.0059427493
              7   6        -0.0058362302
              9  20         0.0053983783

    Largest TIjAb Amplitudes:
      5   5  26  26        -0.0153902080
      4   4  24  24        -0.0112400882
      4   4  25  25        -0.0105703091
      5   5  28  28        -0.0097712071
      5   5  26  28        -0.0085922097
      5   5  28  26        -0.0085922097
      4   4  24  51        -0.0084450041
      4   4  51  24        -0.0084450041
      4   4  51  51        -0.0082406143
      7   7  21  21        -0.0075782645

    SCF energy       (wfn)                    = -152.125237674259381
    Reference energy (file100)                = -152.125237674259125

    Opposite-spin MP2 correlation energy      =   -0.432740712912562
    Same-spin MP2 correlation energy          =   -0.138410255127664
    Singles MP2 correlation energy            =   -0.000000000000000
    MP2 correlation energy                    =   -0.571150968040226
      * MP2 total energy                      = -152.696388642299354

    Opposite-spin CCSD correlation energy     =   -0.456246704779171
    Same-spin CCSD correlation energy         =   -0.123665919893625
    Singles CCSD correlation energy           =    0.000000000000000
    CCSD correlation energy                   =   -0.579912624672796
      * CCSD total energy                     = -152.705150298931926

            **************************
            *                        *
            *        CCTRIPLES       *
            *                        *
            **************************


    Wave function   =    CCSD_T
    Reference wfn   =      RHF

    Nuclear Rep. energy (wfn)                =   37.235068265166738
    SCF energy          (wfn)                = -152.125237674259381
    Reference energy    (file100)            = -152.125237674259125
    CCSD energy         (file100)            =   -0.579912624672796
    Total CCSD energy   (file100)            = -152.705150298931926

    Number of ijk index combinations:              220
    Memory available in words               :      2500000000
    Approx. words needed per explicit thread:        21072096
    Number of threads for explicit ijk threading:    1

    MKL num_threads set to 1 for explicit threading.

    (T) energy                                =   -0.018090348788822
      * CCSD(T) total energy                  = -152.723240647720729


    Psi4 stopped on: Wednesday, 20 September 2023 10:51AM
    Psi4 wall time for execution: 0:10:04.49


  //>>>>>>>>>>>>>>>>>>>>>>>>>>>>>>>>>>>//
  //          ManyBody Results         //
  //<<<<<<<<<<<<<<<<<<<<<<<<<<<<<<<<<<<//


   ==> N-Body: Counterpoise Corrected (CP) energies <==

        n-Body     Total Energy            Interaction Energy                          N-body Contribution to Interaction Energy
                   [Eh]                    [Eh]                  [kcal/mol]            [Eh]                  [kcal/mol]
             1  N/A                         0.000000000000        0.000000000000        0.000000000000        0.000000000000
  FULL/RTN   2  N/A                        -0.007092850248       -4.450830726812       -0.007092850248       -4.450830726812

SCAN-D3ZERO2B 855, -0.01360861359001, -0.00534109030676, -0.00045201803670, -0.00745456731084, -0.00036093793571, 567.1544, 69.1776
855, -0.01211965800962, -0.00466305608626, -0.00044837918529, -0.00664149294019, -0.00036672979789, 24843.4302, 1158.8975
SCAN-D3ZERO2B 197, -0.01920557973409, -0.00738911278441, -0.00180330900159, -0.00873763016142, -0.00127552778667, 625.0727, 71.8164
197, -0.01693335494332, -0.00633918627108, -0.00171206907379, -0.00770487726604, -0.00117722233242, 24668.5502, 1087.3995
SCAN-D3ZERO2B 399, -0.00871666398498, -0.00722080465303, -0.00016451348063, -0.00100318993074, -0.00032815592058, 561.2656, 70.4904
399, -0.00635142922289, -0.00560558368952, -0.00016219857525, -0.00024364779790, -0.00033999916022, 24706.8535, 1165.5823
SCAN-D3ZERO2B 180, -0.01318879989523, -0.00838646437066, 0.00098591854803, -0.00612005434934, 0.00033180027674, 566.5325, 69.9009
180, -0.01156597136608, -0.00729757415493, 0.00098711365905, -0.00552988925730, 0.00027437838710, 24978.3000, 1121.7837
SCAN-D3ZERO2B 2428, -0.01783868456099, -0.00821333626564, -0.00091222237728, -0.00675004820374, -0.00196307771432, 789.9137, 75.6203
2428, -0.01452223205709, -0.00650799743644, -0.00090770884069, -0.00523354636249, -0.00187297941747, 24583.2614, 1187.9647
SCAN-D3ZERO2B 2257, -0.01752425088625, -0.00668234710102, -0.00172383457718, -0.00749677769579, -0.00162129151227, 803.9835, 89.6927
2257, -0.01435282566064, -0.00523425739746, -0.00158206543693, -0.00599014453209, -0.00154635829415, 25076.4487, 1257.2605
SCAN-D3ZERO2B 846, -0.00783337564530, -0.00688512138163, 0.00046680791448, -0.00245412154788, 0.00103905936973, 692.4727, 75.0280
846, -0.00520213715367, -0.00588702773956, 0.00058610406705, -0.00084528209612, 0.00094406861496, 24539.5311, 1044.8564
SCAN-D3ZERO2B 97, -0.01798203122644, -0.00790338805848, -0.00107618906341, -0.00803814792971, -0.00096430617484, 626.3624, 83.1049
97, -0.01647076257731, -0.00724192915575, -0.00104944355925, -0.00729213541280, -0.00088725444951, 24025.1098, 1060.0881
SCAN-D3ZERO2B 2406, -0.01293534959353, -0.00411772409382, -0.00151115106223, -0.00640355208222, -0.00090292235527, 688.3430, 77.6704
2406, -0.01080042914577, -0.00286618740901, -0.00143758945379, -0.00561307255566, -0.00088357972732, 23834.5971, 1092.4418
SCAN-D3ZERO2B 1, -0.02469385412348, -0.00655329394280, -0.00754140678006, -0.00842166994858, -0.00217748345204, 728.5423, 76.0250
1, -0.02180419102396, -0.00592274761223, -0.00674833522862, -0.00709285024817, -0.00204025793494, 24246.8572, 1193.4724
