Scratch directory: /home/gridsan/kfisher/scratch/

  //>>>>>>>>>>>>>>>>>>>>>>>>>>>>>>>>>>>>>>>>//
  // ManyBody Setup: N-Body Levels [1, 2, 3]//
  //<<<<<<<<<<<<<<<<<<<<<<<<<<<<<<<<<<<<<<<<//

        Number of 1-body computations:     3
        Number of 2-body computations:     3
        Number of 3-body computations:     1

    -----------------------------------------------------------------------
          Psi4: An Open-Source Ab Initio Electronic Structure Package
                               Psi4 1.7 release

                         Git: Rev {HEAD} 6ce35a5 


    D. G. A. Smith, L. A. Burns, A. C. Simmonett, R. M. Parrish,
    M. C. Schieber, R. Galvelis, P. Kraus, H. Kruse, R. Di Remigio,
    A. Alenaizan, A. M. James, S. Lehtola, J. P. Misiewicz, M. Scheurer,
    R. A. Shaw, J. B. Schriber, Y. Xie, Z. L. Glick, D. A. Sirianni,
    J. S. O'Brien, J. M. Waldrop, A. Kumar, E. G. Hohenstein,
    B. P. Pritchard, B. R. Brooks, H. F. Schaefer III, A. Yu. Sokolov,
    K. Patkowski, A. E. DePrince III, U. Bozkaya, R. A. King,
    F. A. Evangelista, J. M. Turney, T. D. Crawford, C. D. Sherrill,
    J. Chem. Phys. 152(18) 184108 (2020). https://doi.org/10.1063/5.0006002

                            Additional Code Authors
    E. T. Seidl, C. L. Janssen, E. F. Valeev, M. L. Leininger,
    J. F. Gonthier, R. M. Richard, H. R. McAlexander, M. Saitow, X. Wang,
    P. Verma, M. H. Lechner, A. Jiang, S. Behnle, A. G. Heide,
    M. F. Herbst, and D. L. Poole

             Previous Authors, Complete List of Code Contributors,
                       and Citations for Specific Modules
    https://github.com/psi4/psi4/blob/master/codemeta.json
    https://github.com/psi4/psi4/graphs/contributors
    http://psicode.org/psi4manual/master/introduction.html#citing-psifour

    -----------------------------------------------------------------------


    Psi4 started on: Sunday, 17 September 2023 12:48PM

    Process ID: 258105
    Host:       d-19-15-2
    PSIDATADIR: /home/gridsan/kfisher/.conda/envs/p4env/share/psi4
    Memory:     18.6 GiB
    Threads:    1
    
  ==> Input QCSchema <==

--------------------------------------------------------------------------
{'driver': 'energy',
 'extras': {'psiapi': True, 'wfn_qcvars_only': True},
 'id': None,
 'keywords': {'D_CONVERGENCE': 1e-10, 'E_CONVERGENCE': 1e-10, 'function_kwargs': {'dft_functional': 'scan-d3zero2b'}},
 'model': {'basis': 'aug-cc-pvtz', 'method': 'scf'},
 'molecule': {'atom_labels': ['', '', '', '', '', '', '', '', ''],
              'atomic_numbers': [1, 1, 8, 1, 1, 8, 1, 1, 8],
              'fix_com': True,
              'fix_orientation': True,
              'fix_symmetry': 'c1',
              'fragment_charges': [0.0, 0.0, 0.0],
              'fragment_multiplicities': [1, 1, 1],
              'fragments': [[0, 1, 2], [3, 4, 5], [6, 7, 8]],
              'geometry': [-9.595127544459567, -7.930720041186992, 7.223091873439765, -7.14201982586296,
                           -8.651408862077707, 5.849457133803748, -8.964162920005588, -8.613936915818167,
                           5.672276979198659, -8.3073397934769, -6.792631140424466, 1.794014898710415,
                           -7.747445311957429, -4.6766690819255645, -0.11283252338928619, -7.211115337277191,
                           -6.323947691857242, 0.40588652660997254, -4.3022241965361845, -7.12640666295003,
                           2.431219209858042, -2.4433771408314, -9.105704861891496, 3.444638512856765,
                           -3.545619051932405, -7.770519812812331, 3.969004442464117],
              'mass_numbers': [1, 1, 16, 1, 1, 16, 1, 1, 16],
              'masses': [1.00782503223, 1.00782503223, 15.99491461957, 1.00782503223, 1.00782503223, 15.99491461957,
                         1.00782503223, 1.00782503223, 15.99491461957],
              'molecular_charge': 0.0,
              'molecular_multiplicity': 1,
              'name': 'H6O3',
              'provenance': {'creator': 'QCElemental',
                             'routine': 'qcelemental.molparse.from_string',
                             'version': 'v0.25.1'},
              'real': [True, True, True, False, False, False, False, False, False],
              'schema_name': 'qcschema_molecule',
              'schema_version': 2,
              'symbols': ['H', 'H', 'O', 'H', 'H', 'O', 'H', 'H', 'O'],
              'validated': True},
 'protocols': {'stdout': True},
 'provenance': {'creator': 'QCElemental', 'routine': 'qcelemental.models.results', 'version': 'v0.25.1'},
 'schema_name': 'qcschema_input',
 'schema_version': 1}
--------------------------------------------------------------------------

Scratch directory: /home/gridsan/kfisher/scratch/

*** tstart() called on d-19-15-2
*** at Wed Sep 20 03:54:53 2023

   => Loading Basis Set <=

    Name: AUG-CC-PVTZ
    Role: ORBITAL
    Keyword: BASIS
    atoms 1-2, 4-5, 7-8 entry H          line    40 file /home/gridsan/kfisher/.conda/envs/p4env/share/psi4/basis/aug-cc-pvtz.gbs 
    atoms 3, 6, 9       entry O          line   331 file /home/gridsan/kfisher/.conda/envs/p4env/share/psi4/basis/aug-cc-pvtz.gbs 

   => SCAN-D3: Empirical Dispersion <=

    Grimme's -D3 (zero-damping) Dispersion Correction
    Grimme S.; Antony J.; Ehrlich S.; Krieg H. (2010), J. Chem. Phys., 132: 154104
    Parametrisation from:    J.G. Brandenburg, J. E. Bates, J. Sun, J.P. Perdew, Phys. Rev. B 94, 115144, 2016

        s6 =       1.000000
        s8 =       0.000000
       sr6 =       1.324000
    alpha6 =      14.000000
       sr8 =       1.000000


         ---------------------------------------------------------
                                   SCF
               by Justin Turney, Rob Parrish, Andy Simmonett
                          and Daniel G. A. Smith
                              RKS Reference
                        1 Threads,  19073 MiB Core
         ---------------------------------------------------------

  ==> Geometry <==

    Molecular point group: c1
    Full point group: C1

    Geometry (in Bohr), charge = 0, multiplicity = 1:

       Center              X                  Y                   Z               Mass       
    ------------   -----------------  -----------------  -----------------  -----------------
         H           -9.595127544460    -7.930720041187     7.223091873440     1.007825032230
         H           -7.142019825863    -8.651408862078     5.849457133804     1.007825032230
         O           -8.964162920006    -8.613936915818     5.672276979199    15.994914619570
      Gh(H)          -8.307339793477    -6.792631140424     1.794014898710     1.007825032230
      Gh(H)          -7.747445311957    -4.676669081926    -0.112832523389     1.007825032230
      Gh(O)          -7.211115337277    -6.323947691857     0.405886526610    15.994914619570
      Gh(H)          -4.302224196536    -7.126406662950     2.431219209858     1.007825032230
      Gh(H)          -2.443377140831    -9.105704861891     3.444638512857     1.007825032230
      Gh(O)          -3.545619051932    -7.770519812812     3.969004442464    15.994914619570

  Running in c1 symmetry.

  Rotational constants: A =      0.16673  B =      0.00946  C =      0.00922 [cm^-1]
  Rotational constants: A =   4998.54537  B =    283.54595  C =    276.30011 [MHz]
  Nuclear repulsion =    9.137508922173019

  Charge       = 0
  Multiplicity = 1
  Electrons    = 10
  Nalpha       = 5
  Nbeta        = 5

  ==> Algorithm <==

  SCF Algorithm Type is DF.
  DIIS enabled.
  MOM disabled.
  Fractional occupation disabled.
  Guess Type is SAD.
  Energy threshold   = 1.00e-10
  Density threshold  = 1.00e-10
  Integral threshold = 1.00e-12

  ==> Primary Basis <==

  Basis Set: AUG-CC-PVTZ
    Blend: AUG-CC-PVTZ
    Number of shells: 96
    Number of basis functions: 276
    Number of Cartesian functions: 315
    Spherical Harmonics?: true
    Max angular momentum: 3

  ==> DFT Potential <==

   => Composite Functional: SCAN-D3ZERO2B <= 

    SCAN Meta-GGA XC Functional
(10.1103/PhysRevLett.115.036402)
    J. Sun, A. Ruzsinszky, J. P. Perdew  Phys. Rev. Lett. 115, 036402, 2015


    Deriv               =              1
    GGA                 =           TRUE
    Meta                =           TRUE

    Exchange Hybrid     =          FALSE
    MP2 Hybrid          =          FALSE

   => Exchange Functionals <=

    1.0000   XC_MGGA_X_SCAN

   => Correlation Functionals <=

    1.0000   XC_MGGA_C_SCAN

   => LibXC Density Thresholds  <==

    XC_MGGA_C_SCAN:  1.00E-15 
    XC_MGGA_X_SCAN:  1.00E-15 

   => Molecular Quadrature <=

    Radial Scheme          =       TREUTLER
    Pruning Scheme         =           NONE
    Nuclear Scheme         =       TREUTLER

    Blocking Scheme        =         OCTREE
    BS radius alpha        =              1
    Pruning alpha          =              1
    Radial Points          =             75
    Spherical Points       =            302
    Total Points           =         197088
    Total Blocks           =           1522
    Max Points             =            256
    Max Functions          =            276
    Weights Tolerance      =       1.00E-15

   => Loading Basis Set <=

    Name: (AUG-CC-PVTZ AUX)
    Role: JKFIT
    Keyword: DF_BASIS_SCF
    atoms 1-2, 4-5, 7-8 entry H          line    70 file /home/gridsan/kfisher/.conda/envs/p4env/share/psi4/basis/aug-cc-pvtz-jkfit.gbs 
    atoms 3, 6, 9       entry O          line   286 file /home/gridsan/kfisher/.conda/envs/p4env/share/psi4/basis/aug-cc-pvtz-jkfit.gbs 

  ==> Integral Setup <==

  DFHelper Memory: AOs need 0.344 GiB; user supplied 10.838 GiB. Using in-core AOs.

  ==> MemDFJK: Density-Fitted J/K Matrices <==

    J tasked:                   Yes
    K tasked:                    No
    wK tasked:                   No
    OpenMP threads:               1
    Memory [MiB]:             11098
    Algorithm:                 Core
    Schwarz Cutoff:           1E-12
    Mask sparsity (%):       2.5310
    Fitting Condition:        1E-10

   => Auxiliary Basis Set <=

  Basis Set: (AUG-CC-PVTZ AUX)
    Blend: AUG-CC-PVTZ-JKFIT
    Number of shells: 174
    Number of basis functions: 588
    Number of Cartesian functions: 723
    Spherical Harmonics?: true
    Max angular momentum: 4

  Cached 100.0% of DFT collocation blocks in 3.132 [GiB].

  Minimum eigenvalue in the overlap matrix is 1.6302493532E-04.
  Reciprocal condition number of the overlap matrix is 1.4268811080E-05.
    Using symmetric orthogonalization.

  ==> Pre-Iterations <==

  SCF Guess: Superposition of Atomic Densities via on-the-fly atomic UHF (no occupation information).

   -------------------------
    Irrep   Nso     Nmo    
   -------------------------
     A        276     276 
   -------------------------
    Total     276     276
   -------------------------

  ==> Iterations <==

                           Total Energy        Delta E     RMS |[F,P]|

   @DF-RKS iter SAD:   -76.06241040696419   -7.60624e+01   0.00000e+00 
   @DF-RKS iter   1:   -76.24295255625260   -1.80542e-01   2.65823e-03 DIIS/ADIIS
   @DF-RKS iter   2:   -75.67004552506350    5.72907e-01   4.99750e-03 DIIS/ADIIS
   @DF-RKS iter   3:   -76.42937979761011   -7.59334e-01   2.28916e-04 DIIS/ADIIS
   @DF-RKS iter   4:   -76.43122231315500   -1.84252e-03   2.79175e-05 DIIS
   @DF-RKS iter   5:   -76.43124106205748   -1.87489e-05   7.96392e-06 DIIS
   @DF-RKS iter   6:   -76.43124269324913   -1.63119e-06   4.21336e-07 DIIS
   @DF-RKS iter   7:   -76.43124269744295   -4.19382e-09   1.07249e-07 DIIS
   @DF-RKS iter   8:   -76.43124269775264   -3.09683e-10   2.76730e-08 DIIS
   @DF-RKS iter   9:   -76.43124269777626   -2.36184e-11   2.12879e-09 DIIS
   @DF-RKS iter  10:   -76.43124269777665   -3.97904e-13   1.29063e-10 DIIS
   @DF-RKS iter  11:   -76.43124269777667   -1.42109e-14   1.37240e-11 DIIS
  Energy and wave function converged.


  ==> Post-Iterations <==

   Electrons on quadrature grid:
      Ntotal   =   10.0000010566 ; deviation = 1.057e-06 

    Orbital Energies [Eh]
    ---------------------

    Doubly Occupied:                                                      

       1A    -18.967876     2A     -0.979867     3A     -0.501480  
       4A     -0.355238     5A     -0.279276  

    Virtual:                                                              

       6A     -0.010595     7A      0.028903     8A      0.037643  
       9A      0.054983    10A      0.055382    11A      0.064031  
      12A      0.092249    13A      0.095992    14A      0.113073  
      15A      0.129371    16A      0.130417    17A      0.147288  
      18A      0.155712    19A      0.169711    20A      0.174686  
      21A      0.178356    22A      0.206622    23A      0.208535  
      24A      0.220722    25A      0.228780    26A      0.252113  
      27A      0.273970    28A      0.285566    29A      0.299317  
      30A      0.307501    31A      0.319815    32A      0.327752  
      33A      0.337377    34A      0.347513    35A      0.354254  
      36A      0.365470    37A      0.373102    38A      0.378640  
      39A      0.397258    40A      0.403924    41A      0.418080  
      42A      0.425909    43A      0.453492    44A      0.461485  
      45A      0.474513    46A      0.500075    47A      0.517850  
      48A      0.536755    49A      0.618177    50A      0.621575  
      51A      0.636690    52A      0.646174    53A      0.677687  
      54A      0.704207    55A      0.722909    56A      0.736391  
      57A      0.757538    58A      0.761500    59A      0.776964  
      60A      0.799537    61A      0.807648    62A      0.814505  
      63A      0.823254    64A      0.838073    65A      0.848602  
      66A      0.854101    67A      0.865150    68A      0.885364  
      69A      0.895644    70A      0.901348    71A      0.914922  
      72A      0.922732    73A      0.927660    74A      0.937764  
      75A      0.944451    76A      0.958898    77A      0.968939  
      78A      0.989088    79A      0.997892    80A      1.028056  
      81A      1.044068    82A      1.067049    83A      1.069066  
      84A      1.083929    85A      1.088427    86A      1.104890  
      87A      1.121123    88A      1.131313    89A      1.160271  
      90A      1.184705    91A      1.204102    92A      1.227778  
      93A      1.237180    94A      1.265071    95A      1.267878  
      96A      1.283585    97A      1.334872    98A      1.353888  
      99A      1.372739   100A      1.394132   101A      1.415315  
     102A      1.443660   103A      1.462172   104A      1.495015  
     105A      1.526344   106A      1.563406   107A      1.573943  
     108A      1.586191   109A      1.604053   110A      1.627161  
     111A      1.633067   112A      1.679573   113A      1.707258  
     114A      1.752802   115A      1.763380   116A      1.809931  
     117A      1.828524   118A      1.850964   119A      1.876985  
     120A      1.891692   121A      1.897420   122A      1.944047  
     123A      1.994605   124A      2.027517   125A      2.060804  
     126A      2.092304   127A      2.155102   128A      2.178686  
     129A      2.197238   130A      2.256948   131A      2.295840  
     132A      2.343803   133A      2.368447   134A      2.391618  
     135A      2.429250   136A      2.459767   137A      2.492353  
     138A      2.540652   139A      2.549337   140A      2.573146  
     141A      2.581474   142A      2.596494   143A      2.625896  
     144A      2.648109   145A      2.675061   146A      2.693532  
     147A      2.711626   148A      2.748155   149A      2.759027  
     150A      2.781938   151A      2.831421   152A      2.846655  
     153A      2.884607   154A      2.918923   155A      2.958842  
     156A      3.021509   157A      3.043036   158A      3.053533  
     159A      3.212919   160A      3.241051   161A      3.279770  
     162A      3.296753   163A      3.366549   164A      3.372255  
     165A      3.405466   166A      3.428023   167A      3.467426  
     168A      3.543569   169A      3.590437   170A      3.626643  
     171A      3.659710   172A      3.750452   173A      3.827497  
     174A      3.872605   175A      3.979917   176A      4.068093  
     177A      4.138893   178A      4.185488   179A      4.301686  
     180A      4.307714   181A      4.357590   182A      4.371081  
     183A      4.411676   184A      4.459890   185A      4.490798  
     186A      4.499887   187A      4.553892   188A      4.574826  
     189A      4.635720   190A      4.670461   191A      4.679969  
     192A      4.714895   193A      4.739106   194A      4.788642  
     195A      4.826158   196A      4.901256   197A      4.952142  
     198A      5.044928   199A      5.056756   200A      5.065226  
     201A      5.097802   202A      5.102387   203A      5.140495  
     204A      5.162282   205A      5.218742   206A      5.223275  
     207A      5.262065   208A      5.365516   209A      5.403086  
     210A      5.445586   211A      5.527346   212A      5.596895  
     213A      5.645152   214A      5.708673   215A      5.723098  
     216A      5.764638   217A      5.782787   218A      5.930289  
     219A      5.973936   220A      6.008333   221A      6.265017  
     222A      6.304162   223A      6.342317   224A      6.489968  
     225A      6.536264   226A      6.565228   227A      6.687788  
     228A      6.693954   229A      6.767126   230A      6.927335  
     231A      6.982605   232A      7.016759   233A      7.044757  
     234A      7.079564   235A      7.101104   236A      7.135061  
     237A      7.208553   238A      7.388327   239A      7.675089  
     240A      7.688180   241A      7.758995   242A      7.806129  
     243A      7.888313   244A      7.905114   245A      8.115103  
     246A      8.144821   247A      8.229809   248A      8.265953  
     249A      8.291142   250A      8.451183   251A      8.569380  
     252A      8.795042   253A      8.887704   254A      8.940638  
     255A      9.020317   256A      9.753948   257A      9.845144  
     258A      9.967459   259A     10.029360   260A     10.082282  
     261A     10.118394   262A     10.282396   263A     10.310567  
     264A     11.218609   265A     11.284843   266A     11.863969  
     267A     11.937137   268A     12.226093   269A     12.379885  
     270A     13.613181   271A     13.657582   272A     13.963801  
     273A     13.998426   274A     15.522471   275A     65.997136  
     276A     66.389080  

    Final Occupation by Irrep:
              A 
    DOCC [     5 ]
    NA   [     5 ]
    NB   [     5 ]

  @DF-RKS Final Energy:   -76.43124269777667

   => Energetics <=

    Nuclear Repulsion Energy =              9.1375089221730192
    One-Electron Energy =                -122.9567794419781421
    Two-Electron Energy =                  46.6831442184123944
    DFT Exchange-Correlation Energy =      -9.2951162663839391
    Empirical Dispersion Energy =          -0.0000001300000000
    VV10 Nonlocal Energy =                  0.0000000000000000
    Total Energy =                        -76.4312426977766677

Computation Completed


Properties will be evaluated at   0.000000,   0.000000,   0.000000 [a0]

Properties computed using the SCF density matrix


 Multipole Moments:

 ------------------------------------------------------------------------------------
     Multipole            Electronic (a.u.)      Nuclear  (a.u.)        Total (a.u.)
 ------------------------------------------------------------------------------------

 L = 1.  Multiply by 2.5417464519 to convert [e a0] to [Debye]
 Dipole X            :         88.8366340          -88.4504507            0.3861833
 Dipole Y            :         85.7038235          -85.4936242            0.2101993
 Dipole Z            :        -57.8871188           58.4507648            0.5636460
 Magnitude           :                                                    0.7148553

 ------------------------------------------------------------------------------------

*** tstop() called on d-19-15-2 at Wed Sep 20 03:55:58 2023
Module time:
	user time   =      61.12 seconds =       1.02 minutes
	system time =       0.34 seconds =       0.01 minutes
	total time  =         65 seconds =       1.08 minutes
Total time:
	user time   =  134288.40 seconds =    2238.14 minutes
	system time =   68960.84 seconds =    1149.35 minutes
	total time  =     227254 seconds =    3787.57 minutes

    Psi4 stopped on: Wednesday, 20 September 2023 03:55AM
    Psi4 wall time for execution: 0:01:05.19


    -----------------------------------------------------------------------
          Psi4: An Open-Source Ab Initio Electronic Structure Package
                               Psi4 1.7 release

                         Git: Rev {HEAD} 6ce35a5 


    D. G. A. Smith, L. A. Burns, A. C. Simmonett, R. M. Parrish,
    M. C. Schieber, R. Galvelis, P. Kraus, H. Kruse, R. Di Remigio,
    A. Alenaizan, A. M. James, S. Lehtola, J. P. Misiewicz, M. Scheurer,
    R. A. Shaw, J. B. Schriber, Y. Xie, Z. L. Glick, D. A. Sirianni,
    J. S. O'Brien, J. M. Waldrop, A. Kumar, E. G. Hohenstein,
    B. P. Pritchard, B. R. Brooks, H. F. Schaefer III, A. Yu. Sokolov,
    K. Patkowski, A. E. DePrince III, U. Bozkaya, R. A. King,
    F. A. Evangelista, J. M. Turney, T. D. Crawford, C. D. Sherrill,
    J. Chem. Phys. 152(18) 184108 (2020). https://doi.org/10.1063/5.0006002

                            Additional Code Authors
    E. T. Seidl, C. L. Janssen, E. F. Valeev, M. L. Leininger,
    J. F. Gonthier, R. M. Richard, H. R. McAlexander, M. Saitow, X. Wang,
    P. Verma, M. H. Lechner, A. Jiang, S. Behnle, A. G. Heide,
    M. F. Herbst, and D. L. Poole

             Previous Authors, Complete List of Code Contributors,
                       and Citations for Specific Modules
    https://github.com/psi4/psi4/blob/master/codemeta.json
    https://github.com/psi4/psi4/graphs/contributors
    http://psicode.org/psi4manual/master/introduction.html#citing-psifour

    -----------------------------------------------------------------------


    Psi4 started on: Sunday, 17 September 2023 12:48PM

    Process ID: 258105
    Host:       d-19-15-2
    PSIDATADIR: /home/gridsan/kfisher/.conda/envs/p4env/share/psi4
    Memory:     18.6 GiB
    Threads:    1
    
  ==> Input QCSchema <==

--------------------------------------------------------------------------
{'driver': 'energy',
 'extras': {'psiapi': True, 'wfn_qcvars_only': True},
 'id': None,
 'keywords': {'D_CONVERGENCE': 1e-10, 'E_CONVERGENCE': 1e-10, 'function_kwargs': {'dft_functional': 'scan-d3zero2b'}},
 'model': {'basis': 'aug-cc-pvtz', 'method': 'scf'},
 'molecule': {'atom_labels': ['', '', '', '', '', '', '', '', ''],
              'atomic_numbers': [1, 1, 8, 1, 1, 8, 1, 1, 8],
              'fix_com': True,
              'fix_orientation': True,
              'fix_symmetry': 'c1',
              'fragment_charges': [0.0, 0.0, 0.0],
              'fragment_multiplicities': [1, 1, 1],
              'fragments': [[0, 1, 2], [3, 4, 5], [6, 7, 8]],
              'geometry': [-9.595127544459567, -7.930720041186992, 7.223091873439765, -7.14201982586296,
                           -8.651408862077707, 5.849457133803748, -8.964162920005588, -8.613936915818167,
                           5.672276979198659, -8.3073397934769, -6.792631140424466, 1.794014898710415,
                           -7.747445311957429, -4.6766690819255645, -0.11283252338928619, -7.211115337277191,
                           -6.323947691857242, 0.40588652660997254, -4.3022241965361845, -7.12640666295003,
                           2.431219209858042, -2.4433771408314, -9.105704861891496, 3.444638512856765,
                           -3.545619051932405, -7.770519812812331, 3.969004442464117],
              'mass_numbers': [1, 1, 16, 1, 1, 16, 1, 1, 16],
              'masses': [1.00782503223, 1.00782503223, 15.99491461957, 1.00782503223, 1.00782503223, 15.99491461957,
                         1.00782503223, 1.00782503223, 15.99491461957],
              'molecular_charge': 0.0,
              'molecular_multiplicity': 1,
              'name': 'H6O3',
              'provenance': {'creator': 'QCElemental',
                             'routine': 'qcelemental.molparse.from_string',
                             'version': 'v0.25.1'},
              'real': [False, False, False, True, True, True, False, False, False],
              'schema_name': 'qcschema_molecule',
              'schema_version': 2,
              'symbols': ['H', 'H', 'O', 'H', 'H', 'O', 'H', 'H', 'O'],
              'validated': True},
 'protocols': {'stdout': True},
 'provenance': {'creator': 'QCElemental', 'routine': 'qcelemental.models.results', 'version': 'v0.25.1'},
 'schema_name': 'qcschema_input',
 'schema_version': 1}
--------------------------------------------------------------------------

Scratch directory: /home/gridsan/kfisher/scratch/

*** tstart() called on d-19-15-2
*** at Wed Sep 20 03:55:59 2023

   => Loading Basis Set <=

    Name: AUG-CC-PVTZ
    Role: ORBITAL
    Keyword: BASIS
    atoms 1-2, 4-5, 7-8 entry H          line    40 file /home/gridsan/kfisher/.conda/envs/p4env/share/psi4/basis/aug-cc-pvtz.gbs 
    atoms 3, 6, 9       entry O          line   331 file /home/gridsan/kfisher/.conda/envs/p4env/share/psi4/basis/aug-cc-pvtz.gbs 

   => SCAN-D3: Empirical Dispersion <=

    Grimme's -D3 (zero-damping) Dispersion Correction
    Grimme S.; Antony J.; Ehrlich S.; Krieg H. (2010), J. Chem. Phys., 132: 154104
    Parametrisation from:    J.G. Brandenburg, J. E. Bates, J. Sun, J.P. Perdew, Phys. Rev. B 94, 115144, 2016

        s6 =       1.000000
        s8 =       0.000000
       sr6 =       1.324000
    alpha6 =      14.000000
       sr8 =       1.000000


         ---------------------------------------------------------
                                   SCF
               by Justin Turney, Rob Parrish, Andy Simmonett
                          and Daniel G. A. Smith
                              RKS Reference
                        1 Threads,  19073 MiB Core
         ---------------------------------------------------------

  ==> Geometry <==

    Molecular point group: c1
    Full point group: C1

    Geometry (in Bohr), charge = 0, multiplicity = 1:

       Center              X                  Y                   Z               Mass       
    ------------   -----------------  -----------------  -----------------  -----------------
      Gh(H)          -9.595127544460    -7.930720041187     7.223091873440     1.007825032230
      Gh(H)          -7.142019825863    -8.651408862078     5.849457133804     1.007825032230
      Gh(O)          -8.964162920006    -8.613936915818     5.672276979199    15.994914619570
         H           -8.307339793477    -6.792631140424     1.794014898710     1.007825032230
         H           -7.747445311957    -4.676669081926    -0.112832523389     1.007825032230
         O           -7.211115337277    -6.323947691857     0.405886526610    15.994914619570
      Gh(H)          -4.302224196536    -7.126406662950     2.431219209858     1.007825032230
      Gh(H)          -2.443377140831    -9.105704861891     3.444638512857     1.007825032230
      Gh(O)          -3.545619051932    -7.770519812812     3.969004442464    15.994914619570

  Running in c1 symmetry.

  Rotational constants: A =      0.16673  B =      0.00946  C =      0.00922 [cm^-1]
  Rotational constants: A =   4998.54537  B =    283.54595  C =    276.30011 [MHz]
  Nuclear repulsion =    9.140320658561581

  Charge       = 0
  Multiplicity = 1
  Electrons    = 10
  Nalpha       = 5
  Nbeta        = 5

  ==> Algorithm <==

  SCF Algorithm Type is DF.
  DIIS enabled.
  MOM disabled.
  Fractional occupation disabled.
  Guess Type is SAD.
  Energy threshold   = 1.00e-10
  Density threshold  = 1.00e-10
  Integral threshold = 1.00e-12

  ==> Primary Basis <==

  Basis Set: AUG-CC-PVTZ
    Blend: AUG-CC-PVTZ
    Number of shells: 96
    Number of basis functions: 276
    Number of Cartesian functions: 315
    Spherical Harmonics?: true
    Max angular momentum: 3

  ==> DFT Potential <==

   => Composite Functional: SCAN-D3ZERO2B <= 

    SCAN Meta-GGA XC Functional
(10.1103/PhysRevLett.115.036402)
    J. Sun, A. Ruzsinszky, J. P. Perdew  Phys. Rev. Lett. 115, 036402, 2015


    Deriv               =              1
    GGA                 =           TRUE
    Meta                =           TRUE

    Exchange Hybrid     =          FALSE
    MP2 Hybrid          =          FALSE

   => Exchange Functionals <=

    1.0000   XC_MGGA_X_SCAN

   => Correlation Functionals <=

    1.0000   XC_MGGA_C_SCAN

   => LibXC Density Thresholds  <==

    XC_MGGA_C_SCAN:  1.00E-15 
    XC_MGGA_X_SCAN:  1.00E-15 

   => Molecular Quadrature <=

    Radial Scheme          =       TREUTLER
    Pruning Scheme         =           NONE
    Nuclear Scheme         =       TREUTLER

    Blocking Scheme        =         OCTREE
    BS radius alpha        =              1
    Pruning alpha          =              1
    Radial Points          =             75
    Spherical Points       =            302
    Total Points           =         197088
    Total Blocks           =           1522
    Max Points             =            256
    Max Functions          =            276
    Weights Tolerance      =       1.00E-15

   => Loading Basis Set <=

    Name: (AUG-CC-PVTZ AUX)
    Role: JKFIT
    Keyword: DF_BASIS_SCF
    atoms 1-2, 4-5, 7-8 entry H          line    70 file /home/gridsan/kfisher/.conda/envs/p4env/share/psi4/basis/aug-cc-pvtz-jkfit.gbs 
    atoms 3, 6, 9       entry O          line   286 file /home/gridsan/kfisher/.conda/envs/p4env/share/psi4/basis/aug-cc-pvtz-jkfit.gbs 

  ==> Integral Setup <==

  DFHelper Memory: AOs need 0.344 GiB; user supplied 10.838 GiB. Using in-core AOs.

  ==> MemDFJK: Density-Fitted J/K Matrices <==

    J tasked:                   Yes
    K tasked:                    No
    wK tasked:                   No
    OpenMP threads:               1
    Memory [MiB]:             11098
    Algorithm:                 Core
    Schwarz Cutoff:           1E-12
    Mask sparsity (%):       2.5310
    Fitting Condition:        1E-10

   => Auxiliary Basis Set <=

  Basis Set: (AUG-CC-PVTZ AUX)
    Blend: AUG-CC-PVTZ-JKFIT
    Number of shells: 174
    Number of basis functions: 588
    Number of Cartesian functions: 723
    Spherical Harmonics?: true
    Max angular momentum: 4

  Cached 100.0% of DFT collocation blocks in 3.132 [GiB].

  Minimum eigenvalue in the overlap matrix is 1.6302493532E-04.
  Reciprocal condition number of the overlap matrix is 1.4268811080E-05.
    Using symmetric orthogonalization.

  ==> Pre-Iterations <==

  SCF Guess: Superposition of Atomic Densities via on-the-fly atomic UHF (no occupation information).

   -------------------------
    Irrep   Nso     Nmo    
   -------------------------
     A        276     276 
   -------------------------
    Total     276     276
   -------------------------

  ==> Iterations <==

                           Total Energy        Delta E     RMS |[F,P]|

   @DF-RKS iter SAD:   -76.06255191851395   -7.60626e+01   0.00000e+00 
   @DF-RKS iter   1:   -76.24291474340380   -1.80363e-01   2.65882e-03 DIIS/ADIIS
   @DF-RKS iter   2:   -75.66718322795994    5.75732e-01   5.00454e-03 DIIS/ADIIS
   @DF-RKS iter   3:   -76.42938236210740   -7.62199e-01   2.29524e-04 DIIS/ADIIS
   @DF-RKS iter   4:   -76.43123861584458   -1.85625e-03   2.80621e-05 DIIS
   @DF-RKS iter   5:   -76.43125752255983   -1.89067e-05   8.01835e-06 DIIS
   @DF-RKS iter   6:   -76.43125917374076   -1.65118e-06   4.19958e-07 DIIS
   @DF-RKS iter   7:   -76.43125917785922   -4.11846e-09   1.05537e-07 DIIS
   @DF-RKS iter   8:   -76.43125917816222   -3.03004e-10   2.27492e-08 DIIS
   @DF-RKS iter   9:   -76.43125917817795   -1.57314e-11   2.38719e-09 DIIS
   @DF-RKS iter  10:   -76.43125917817818   -2.27374e-13   1.32570e-10 DIIS
   @DF-RKS iter  11:   -76.43125917817821   -2.84217e-14   1.40478e-11 DIIS
  Energy and wave function converged.


  ==> Post-Iterations <==

   Electrons on quadrature grid:
      Ntotal   =   10.0000058035 ; deviation = 5.803e-06 

    Orbital Energies [Eh]
    ---------------------

    Doubly Occupied:                                                      

       1A    -18.967745     2A     -0.979936     3A     -0.501718  
       4A     -0.355112     5A     -0.279273  

    Virtual:                                                              

       6A     -0.010710     7A      0.028795     8A      0.038962  
       9A      0.047403    10A      0.059697    11A      0.065567  
      12A      0.088532    13A      0.098796    14A      0.113428  
      15A      0.125648    16A      0.134391    17A      0.143927  
      18A      0.152336    19A      0.168712    20A      0.177260  
      21A      0.179596    22A      0.203166    23A      0.210897  
      24A      0.217292    25A      0.241136    26A      0.259935  
      27A      0.268160    28A      0.272185    29A      0.299219  
      30A      0.310397    31A      0.321031    32A      0.330323  
      33A      0.334498    34A      0.351180    35A      0.354506  
      36A      0.364937    37A      0.370350    38A      0.374616  
      39A      0.383746    40A      0.401631    41A      0.409557  
      42A      0.442110    43A      0.445097    44A      0.464531  
      45A      0.480743    46A      0.491715    47A      0.520763  
      48A      0.539828    49A      0.599368    50A      0.628561  
      51A      0.646517    52A      0.661696    53A      0.683306  
      54A      0.698260    55A      0.719062    56A      0.732522  
      57A      0.762933    58A      0.763264    59A      0.781749  
      60A      0.796232    61A      0.808369    62A      0.816004  
      63A      0.822645    64A      0.831014    65A      0.839513  
      66A      0.853479    67A      0.862462    68A      0.870749  
      69A      0.885361    70A      0.893227    71A      0.910542  
      72A      0.920008    73A      0.927127    74A      0.933758  
      75A      0.954600    76A      0.965383    77A      0.976536  
      78A      0.989036    79A      1.002351    80A      1.024030  
      81A      1.050444    82A      1.059067    83A      1.068716  
      84A      1.083171    85A      1.090040    86A      1.121769  
      87A      1.127565    88A      1.146108    89A      1.154658  
      90A      1.174617    91A      1.191909    92A      1.226217  
      93A      1.246493    94A      1.257237    95A      1.272436  
      96A      1.288272    97A      1.313393    98A      1.348023  
      99A      1.376335   100A      1.391726   101A      1.424021  
     102A      1.437766   103A      1.465879   104A      1.507628  
     105A      1.520411   106A      1.533734   107A      1.574499  
     108A      1.581552   109A      1.622759   110A      1.642804  
     111A      1.681082   112A      1.702278   113A      1.716038  
     114A      1.754549   115A      1.766303   116A      1.798085  
     117A      1.816972   118A      1.824884   119A      1.863329  
     120A      1.880781   121A      1.906479   122A      1.926103  
     123A      1.947478   124A      2.028957   125A      2.059482  
     126A      2.129915   127A      2.175411   128A      2.212936  
     129A      2.241792   130A      2.269760   131A      2.315768  
     132A      2.343222   133A      2.397852   134A      2.430472  
     135A      2.438684   136A      2.483746   137A      2.515542  
     138A      2.535312   139A      2.541879   140A      2.563405  
     141A      2.578554   142A      2.590498   143A      2.597592  
     144A      2.646437   145A      2.673667   146A      2.677438  
     147A      2.706164   148A      2.734115   149A      2.765320  
     150A      2.790517   151A      2.826456   152A      2.884914  
     153A      2.892666   154A      2.937561   155A      2.958853  
     156A      2.985141   157A      3.025965   158A      3.068881  
     159A      3.193713   160A      3.249660   161A      3.269992  
     162A      3.282024   163A      3.340510   164A      3.373563  
     165A      3.428227   166A      3.464636   167A      3.484824  
     168A      3.487984   169A      3.566181   170A      3.648347  
     171A      3.698978   172A      3.723774   173A      3.797053  
     174A      3.921410   175A      4.000289   176A      4.094664  
     177A      4.159934   178A      4.239315   179A      4.314903  
     180A      4.355725   181A      4.396702   182A      4.418976  
     183A      4.436093   184A      4.482530   185A      4.519258  
     186A      4.524543   187A      4.557843   188A      4.595510  
     189A      4.611993   190A      4.663845   191A      4.698957  
     192A      4.737191   193A      4.798132   194A      4.810991  
     195A      4.870552   196A      4.906503   197A      4.945265  
     198A      4.989001   199A      5.019982   200A      5.058084  
     201A      5.100272   202A      5.122343   203A      5.160634  
     204A      5.208467   205A      5.225053   206A      5.321459  
     207A      5.380517   208A      5.412037   209A      5.469287  
     210A      5.531800   211A      5.577957   212A      5.612197  
     213A      5.670892   214A      5.708787   215A      5.722383  
     216A      5.737862   217A      5.874544   218A      5.905078  
     219A      5.992077   220A      6.097909   221A      6.241654  
     222A      6.317673   223A      6.386246   224A      6.492888  
     225A      6.583339   226A      6.655376   227A      6.680837  
     228A      6.712890   229A      6.841737   230A      6.974587  
     231A      7.016005   232A      7.036669   233A      7.069275  
     234A      7.081960   235A      7.121968   236A      7.201494  
     237A      7.266690   238A      7.490216   239A      7.671541  
     240A      7.704898   241A      7.748117   242A      7.803124  
     243A      7.833015   244A      7.942770   245A      8.099063  
     246A      8.165016   247A      8.244355   248A      8.305412  
     249A      8.326940   250A      8.476575   251A      8.611377  
     252A      8.795978   253A      8.887312   254A      8.950374  
     255A      9.201297   256A      9.742705   257A      9.821651  
     258A      9.954937   259A      9.998610   260A     10.065040  
     261A     10.156939   262A     10.262695   263A     10.366990  
     264A     11.201882   265A     11.351160   266A     11.795781  
     267A     11.986208   268A     12.173049   269A     12.354924  
     270A     13.564427   271A     13.716432   272A     13.918099  
     273A     14.100305   274A     15.820789   275A     65.475377  
     276A     66.387917  

    Final Occupation by Irrep:
              A 
    DOCC [     5 ]
    NA   [     5 ]
    NB   [     5 ]

  @DF-RKS Final Energy:   -76.43125917817821

   => Energetics <=

    Nuclear Repulsion Energy =              9.1403206585615813
    One-Electron Energy =                -122.9621318487992454
    Two-Electron Energy =                  46.6860231753990149
    DFT Exchange-Correlation Energy =      -9.2954710333395507
    Empirical Dispersion Energy =          -0.0000001300000000
    VV10 Nonlocal Energy =                  0.0000000000000000
    Total Energy =                        -76.4312591781782089

Computation Completed


Properties will be evaluated at   0.000000,   0.000000,   0.000000 [a0]

Properties computed using the SCF density matrix


 Multipole Moments:

 ------------------------------------------------------------------------------------
     Multipole            Electronic (a.u.)      Nuclear  (a.u.)        Total (a.u.)
 ------------------------------------------------------------------------------------

 L = 1.  Multiply by 2.5417464519 to convert [e a0] to [Debye]
 Dipole X            :         73.2122713          -73.7437078           -0.5314365
 Dipole Y            :         62.4458569          -62.0608818            0.3849752
 Dipole Z            :         -4.6465664            4.9282746            0.2817081
 Magnitude           :                                                    0.7141359

 ------------------------------------------------------------------------------------

*** tstop() called on d-19-15-2 at Wed Sep 20 03:57:09 2023
Module time:
	user time   =      61.24 seconds =       1.02 minutes
	system time =       0.62 seconds =       0.01 minutes
	total time  =         70 seconds =       1.17 minutes
Total time:
	user time   =  134349.71 seconds =    2239.16 minutes
	system time =   68961.46 seconds =    1149.36 minutes
	total time  =     227325 seconds =    3788.75 minutes

    Psi4 stopped on: Wednesday, 20 September 2023 03:57AM
    Psi4 wall time for execution: 0:01:10.90


    -----------------------------------------------------------------------
          Psi4: An Open-Source Ab Initio Electronic Structure Package
                               Psi4 1.7 release

                         Git: Rev {HEAD} 6ce35a5 


    D. G. A. Smith, L. A. Burns, A. C. Simmonett, R. M. Parrish,
    M. C. Schieber, R. Galvelis, P. Kraus, H. Kruse, R. Di Remigio,
    A. Alenaizan, A. M. James, S. Lehtola, J. P. Misiewicz, M. Scheurer,
    R. A. Shaw, J. B. Schriber, Y. Xie, Z. L. Glick, D. A. Sirianni,
    J. S. O'Brien, J. M. Waldrop, A. Kumar, E. G. Hohenstein,
    B. P. Pritchard, B. R. Brooks, H. F. Schaefer III, A. Yu. Sokolov,
    K. Patkowski, A. E. DePrince III, U. Bozkaya, R. A. King,
    F. A. Evangelista, J. M. Turney, T. D. Crawford, C. D. Sherrill,
    J. Chem. Phys. 152(18) 184108 (2020). https://doi.org/10.1063/5.0006002

                            Additional Code Authors
    E. T. Seidl, C. L. Janssen, E. F. Valeev, M. L. Leininger,
    J. F. Gonthier, R. M. Richard, H. R. McAlexander, M. Saitow, X. Wang,
    P. Verma, M. H. Lechner, A. Jiang, S. Behnle, A. G. Heide,
    M. F. Herbst, and D. L. Poole

             Previous Authors, Complete List of Code Contributors,
                       and Citations for Specific Modules
    https://github.com/psi4/psi4/blob/master/codemeta.json
    https://github.com/psi4/psi4/graphs/contributors
    http://psicode.org/psi4manual/master/introduction.html#citing-psifour

    -----------------------------------------------------------------------


    Psi4 started on: Sunday, 17 September 2023 12:48PM

    Process ID: 258105
    Host:       d-19-15-2
    PSIDATADIR: /home/gridsan/kfisher/.conda/envs/p4env/share/psi4
    Memory:     18.6 GiB
    Threads:    1
    
  ==> Input QCSchema <==

--------------------------------------------------------------------------
{'driver': 'energy',
 'extras': {'psiapi': True, 'wfn_qcvars_only': True},
 'id': None,
 'keywords': {'D_CONVERGENCE': 1e-10, 'E_CONVERGENCE': 1e-10, 'function_kwargs': {'dft_functional': 'scan-d3zero2b'}},
 'model': {'basis': 'aug-cc-pvtz', 'method': 'scf'},
 'molecule': {'atom_labels': ['', '', '', '', '', '', '', '', ''],
              'atomic_numbers': [1, 1, 8, 1, 1, 8, 1, 1, 8],
              'fix_com': True,
              'fix_orientation': True,
              'fix_symmetry': 'c1',
              'fragment_charges': [0.0, 0.0, 0.0],
              'fragment_multiplicities': [1, 1, 1],
              'fragments': [[0, 1, 2], [3, 4, 5], [6, 7, 8]],
              'geometry': [-9.595127544459567, -7.930720041186992, 7.223091873439765, -7.14201982586296,
                           -8.651408862077707, 5.849457133803748, -8.964162920005588, -8.613936915818167,
                           5.672276979198659, -8.3073397934769, -6.792631140424466, 1.794014898710415,
                           -7.747445311957429, -4.6766690819255645, -0.11283252338928619, -7.211115337277191,
                           -6.323947691857242, 0.40588652660997254, -4.3022241965361845, -7.12640666295003,
                           2.431219209858042, -2.4433771408314, -9.105704861891496, 3.444638512856765,
                           -3.545619051932405, -7.770519812812331, 3.969004442464117],
              'mass_numbers': [1, 1, 16, 1, 1, 16, 1, 1, 16],
              'masses': [1.00782503223, 1.00782503223, 15.99491461957, 1.00782503223, 1.00782503223, 15.99491461957,
                         1.00782503223, 1.00782503223, 15.99491461957],
              'molecular_charge': 0.0,
              'molecular_multiplicity': 1,
              'name': 'H6O3',
              'provenance': {'creator': 'QCElemental',
                             'routine': 'qcelemental.molparse.from_string',
                             'version': 'v0.25.1'},
              'real': [False, False, False, True, True, True, True, True, True],
              'schema_name': 'qcschema_molecule',
              'schema_version': 2,
              'symbols': ['H', 'H', 'O', 'H', 'H', 'O', 'H', 'H', 'O'],
              'validated': True},
 'protocols': {'stdout': True},
 'provenance': {'creator': 'QCElemental', 'routine': 'qcelemental.models.results', 'version': 'v0.25.1'},
 'schema_name': 'qcschema_input',
 'schema_version': 1}
--------------------------------------------------------------------------

Scratch directory: /home/gridsan/kfisher/scratch/

*** tstart() called on d-19-15-2
*** at Wed Sep 20 03:57:09 2023

   => Loading Basis Set <=

    Name: AUG-CC-PVTZ
    Role: ORBITAL
    Keyword: BASIS
    atoms 1-2, 4-5, 7-8 entry H          line    40 file /home/gridsan/kfisher/.conda/envs/p4env/share/psi4/basis/aug-cc-pvtz.gbs 
    atoms 3, 6, 9       entry O          line   331 file /home/gridsan/kfisher/.conda/envs/p4env/share/psi4/basis/aug-cc-pvtz.gbs 

   => SCAN-D3: Empirical Dispersion <=

    Grimme's -D3 (zero-damping) Dispersion Correction
    Grimme S.; Antony J.; Ehrlich S.; Krieg H. (2010), J. Chem. Phys., 132: 154104
    Parametrisation from:    J.G. Brandenburg, J. E. Bates, J. Sun, J.P. Perdew, Phys. Rev. B 94, 115144, 2016

        s6 =       1.000000
        s8 =       0.000000
       sr6 =       1.324000
    alpha6 =      14.000000
       sr8 =       1.000000


         ---------------------------------------------------------
                                   SCF
               by Justin Turney, Rob Parrish, Andy Simmonett
                          and Daniel G. A. Smith
                              RKS Reference
                        1 Threads,  19073 MiB Core
         ---------------------------------------------------------

  ==> Geometry <==

    Molecular point group: c1
    Full point group: C1

    Geometry (in Bohr), charge = 0, multiplicity = 1:

       Center              X                  Y                   Z               Mass       
    ------------   -----------------  -----------------  -----------------  -----------------
      Gh(H)          -9.595127544460    -7.930720041187     7.223091873440     1.007825032230
      Gh(H)          -7.142019825863    -8.651408862078     5.849457133804     1.007825032230
      Gh(O)          -8.964162920006    -8.613936915818     5.672276979199    15.994914619570
         H           -8.307339793477    -6.792631140424     1.794014898710     1.007825032230
         H           -7.747445311957    -4.676669081926    -0.112832523389     1.007825032230
         O           -7.211115337277    -6.323947691857     0.405886526610    15.994914619570
         H           -4.302224196536    -7.126406662950     2.431219209858     1.007825032230
         H           -2.443377140831    -9.105704861891     3.444638512857     1.007825032230
         O           -3.545619051932    -7.770519812812     3.969004442464    15.994914619570

  Running in c1 symmetry.

  Rotational constants: A =      0.16673  B =      0.00946  C =      0.00922 [cm^-1]
  Rotational constants: A =   4998.54537  B =    283.54595  C =    276.30011 [MHz]
  Nuclear repulsion =   37.235068265166738

  Charge       = 0
  Multiplicity = 1
  Electrons    = 20
  Nalpha       = 10
  Nbeta        = 10

  ==> Algorithm <==

  SCF Algorithm Type is DF.
  DIIS enabled.
  MOM disabled.
  Fractional occupation disabled.
  Guess Type is SAD.
  Energy threshold   = 1.00e-10
  Density threshold  = 1.00e-10
  Integral threshold = 1.00e-12

  ==> Primary Basis <==

  Basis Set: AUG-CC-PVTZ
    Blend: AUG-CC-PVTZ
    Number of shells: 96
    Number of basis functions: 276
    Number of Cartesian functions: 315
    Spherical Harmonics?: true
    Max angular momentum: 3

  ==> DFT Potential <==

   => Composite Functional: SCAN-D3ZERO2B <= 

    SCAN Meta-GGA XC Functional
(10.1103/PhysRevLett.115.036402)
    J. Sun, A. Ruzsinszky, J. P. Perdew  Phys. Rev. Lett. 115, 036402, 2015


    Deriv               =              1
    GGA                 =           TRUE
    Meta                =           TRUE

    Exchange Hybrid     =          FALSE
    MP2 Hybrid          =          FALSE

   => Exchange Functionals <=

    1.0000   XC_MGGA_X_SCAN

   => Correlation Functionals <=

    1.0000   XC_MGGA_C_SCAN

   => LibXC Density Thresholds  <==

    XC_MGGA_C_SCAN:  1.00E-15 
    XC_MGGA_X_SCAN:  1.00E-15 

   => Molecular Quadrature <=

    Radial Scheme          =       TREUTLER
    Pruning Scheme         =           NONE
    Nuclear Scheme         =       TREUTLER

    Blocking Scheme        =         OCTREE
    BS radius alpha        =              1
    Pruning alpha          =              1
    Radial Points          =             75
    Spherical Points       =            302
    Total Points           =         197088
    Total Blocks           =           1522
    Max Points             =            256
    Max Functions          =            276
    Weights Tolerance      =       1.00E-15

   => Loading Basis Set <=

    Name: (AUG-CC-PVTZ AUX)
    Role: JKFIT
    Keyword: DF_BASIS_SCF
    atoms 1-2, 4-5, 7-8 entry H          line    70 file /home/gridsan/kfisher/.conda/envs/p4env/share/psi4/basis/aug-cc-pvtz-jkfit.gbs 
    atoms 3, 6, 9       entry O          line   286 file /home/gridsan/kfisher/.conda/envs/p4env/share/psi4/basis/aug-cc-pvtz-jkfit.gbs 

  ==> Integral Setup <==

  DFHelper Memory: AOs need 0.344 GiB; user supplied 10.838 GiB. Using in-core AOs.

  ==> MemDFJK: Density-Fitted J/K Matrices <==

    J tasked:                   Yes
    K tasked:                    No
    wK tasked:                   No
    OpenMP threads:               1
    Memory [MiB]:             11098
    Algorithm:                 Core
    Schwarz Cutoff:           1E-12
    Mask sparsity (%):       2.5310
    Fitting Condition:        1E-10

   => Auxiliary Basis Set <=

  Basis Set: (AUG-CC-PVTZ AUX)
    Blend: AUG-CC-PVTZ-JKFIT
    Number of shells: 174
    Number of basis functions: 588
    Number of Cartesian functions: 723
    Spherical Harmonics?: true
    Max angular momentum: 4

  Cached 100.0% of DFT collocation blocks in 3.132 [GiB].

  Minimum eigenvalue in the overlap matrix is 1.6302493532E-04.
  Reciprocal condition number of the overlap matrix is 1.4268811080E-05.
    Using symmetric orthogonalization.

  ==> Pre-Iterations <==

  SCF Guess: Superposition of Atomic Densities via on-the-fly atomic UHF (no occupation information).

   -------------------------
    Irrep   Nso     Nmo    
   -------------------------
     A        276     276 
   -------------------------
    Total     276     276
   -------------------------

  ==> Iterations <==

                           Total Energy        Delta E     RMS |[F,P]|

   @DF-RKS iter SAD:  -152.18337793922262   -1.52183e+02   0.00000e+00 
   @DF-RKS iter   1:  -152.51679498116570   -3.33417e-01   3.66753e-03 DIIS/ADIIS
   @DF-RKS iter   2:  -151.53877546628050    9.78020e-01   6.64676e-03 DIIS/ADIIS
   @DF-RKS iter   3:  -152.86713266411004   -1.32836e+00   3.37738e-04 DIIS/ADIIS
   @DF-RKS iter   4:  -152.86874293735221   -1.61027e-03   2.93422e-04 DIIS/ADIIS
   @DF-RKS iter   5:  -152.87091623324650   -2.17330e-03   4.20291e-05 DIIS
   @DF-RKS iter   6:  -152.87096166515104   -4.54319e-05   9.07224e-06 DIIS
   @DF-RKS iter   7:  -152.87096413488018   -2.46973e-06   1.07505e-06 DIIS
   @DF-RKS iter   8:  -152.87096416515723   -3.02771e-08   2.38161e-07 DIIS
   @DF-RKS iter   9:  -152.87096416674177   -1.58454e-09   3.44139e-08 DIIS
   @DF-RKS iter  10:  -152.87096416677738   -3.56124e-11   5.64751e-09 DIIS
   @DF-RKS iter  11:  -152.87096416677863   -1.25056e-12   9.76408e-10 DIIS
   @DF-RKS iter  12:  -152.87096416677835    2.84217e-13   1.13722e-10 DIIS
   @DF-RKS iter  13:  -152.87096416677852   -1.70530e-13   3.10111e-11 DIIS
  Energy and wave function converged.


  ==> Post-Iterations <==

   Electrons on quadrature grid:
      Ntotal   =   20.0000087387 ; deviation = 8.739e-06 

    Orbital Energies [Eh]
    ---------------------

    Doubly Occupied:                                                      

       1A    -18.990851     2A    -18.942113     3A     -1.004529  
       4A     -0.955650     5A     -0.525455     6A     -0.478135  
       7A     -0.383457     8A     -0.333393     9A     -0.302237  
      10A     -0.258378  

    Virtual:                                                              

      11A     -0.019804    12A      0.017060    13A      0.028704  
      14A      0.045993    15A      0.054124    16A      0.062830  
      17A      0.079765    18A      0.096894    19A      0.105282  
      20A      0.108083    21A      0.123925    22A      0.137965  
      23A      0.150513    24A      0.155428    25A      0.168846  
      26A      0.170401    27A      0.183722    28A      0.195145  
      29A      0.201161    30A      0.213419    31A      0.224059  
      32A      0.245727    33A      0.258863    34A      0.272439  
      35A      0.291128    36A      0.304396    37A      0.312812  
      38A      0.327595    39A      0.329507    40A      0.342374  
      41A      0.348527    42A      0.355421    43A      0.361529  
      44A      0.362611    45A      0.374867    46A      0.393648  
      47A      0.399517    48A      0.422031    49A      0.448171  
      50A      0.454505    51A      0.471284    52A      0.493970  
      53A      0.519064    54A      0.541002    55A      0.576989  
      56A      0.601987    57A      0.625702    58A      0.636672  
      59A      0.652342    60A      0.658684    61A      0.671369  
      62A      0.691447    63A      0.708483    64A      0.732154  
      65A      0.760097    66A      0.770318    67A      0.775512  
      68A      0.799287    69A      0.809030    70A      0.814195  
      71A      0.827397    72A      0.835652    73A      0.841994  
      74A      0.847136    75A      0.863618    76A      0.875124  
      77A      0.884611    78A      0.896576    79A      0.909792  
      80A      0.930388    81A      0.942173    82A      0.953133  
      83A      0.960568    84A      0.966911    85A      0.990547  
      86A      1.018317    87A      1.029619    88A      1.055343  
      89A      1.059021    90A      1.067335    91A      1.080020  
      92A      1.085411    93A      1.103308    94A      1.111839  
      95A      1.144694    96A      1.151025    97A      1.180089  
      98A      1.205661    99A      1.227361   100A      1.232765  
     101A      1.243283   102A      1.266039   103A      1.271351  
     104A      1.294077   105A      1.345010   106A      1.365148  
     107A      1.387333   108A      1.421329   109A      1.441616  
     110A      1.466396   111A      1.472678   112A      1.506949  
     113A      1.532092   114A      1.556838   115A      1.558544  
     116A      1.599021   117A      1.615482   118A      1.661614  
     119A      1.702274   120A      1.712559   121A      1.740702  
     122A      1.768249   123A      1.812977   124A      1.836865  
     125A      1.861893   126A      1.876163   127A      1.908538  
     128A      1.915101   129A      1.940223   130A      1.972873  
     131A      2.112745   132A      2.130403   133A      2.154946  
     134A      2.193844   135A      2.228851   136A      2.246884  
     137A      2.260226   138A      2.286671   139A      2.298303  
     140A      2.326434   141A      2.346223   142A      2.365993  
     143A      2.389700   144A      2.405692   145A      2.444979  
     146A      2.469576   147A      2.520387   148A      2.524893  
     149A      2.540764   150A      2.562479   151A      2.578216  
     152A      2.602733   153A      2.620538   154A      2.647496  
     155A      2.685392   156A      2.723977   157A      2.730052  
     158A      2.743206   159A      2.789457   160A      2.811632  
     161A      2.820209   162A      2.849541   163A      2.886919  
     164A      2.932225   165A      2.983717   166A      3.027049  
     167A      3.212014   168A      3.264329   169A      3.348072  
     170A      3.392419   171A      3.420366   172A      3.562899  
     173A      3.628150   174A      3.681686   175A      3.705546  
     176A      3.801815   177A      3.866957   178A      3.938273  
     179A      3.984941   180A      4.051013   181A      4.114641  
     182A      4.127633   183A      4.160519   184A      4.174437  
     185A      4.211706   186A      4.281274   187A      4.309038  
     188A      4.338156   189A      4.366117   190A      4.380761  
     191A      4.383995   192A      4.444419   193A      4.466919  
     194A      4.493904   195A      4.508908   196A      4.553960  
     197A      4.563239   198A      4.613658   199A      4.644155  
     200A      4.703936   201A      4.737663   202A      4.744224  
     203A      4.846092   204A      4.877196   205A      4.983966  
     206A      5.035667   207A      5.057856   208A      5.071941  
     209A      5.087289   210A      5.131049   211A      5.178134  
     212A      5.180626   213A      5.199111   214A      5.247131  
     215A      5.290641   216A      5.339583   217A      5.383460  
     218A      5.440584   219A      5.514118   220A      5.588098  
     221A      5.636832   222A      5.688636   223A      5.720190  
     224A      5.768962   225A      5.947485   226A      6.018578  
     227A      6.080469   228A      6.285923   229A      6.319877  
     230A      6.368120   231A      6.513624   232A      6.554348  
     233A      6.570335   234A      6.670054   235A      6.742047  
     236A      6.752570   237A      6.890882   238A      6.935813  
     239A      6.989111   240A      6.999665   241A      7.007450  
     242A      7.029150   243A      7.049079   244A      7.076923  
     245A      7.093931   246A      7.142404   247A      7.154579  
     248A      7.173791   249A      7.248198   250A      7.420988  
     251A      7.515491   252A      7.648322   253A      7.662406  
     254A      7.730287   255A      7.792156   256A      7.827052  
     257A      7.850091   258A      8.106057   259A      8.213861  
     260A      8.332612   261A      8.581338   262A      8.637371  
     263A      8.825195   264A      8.989187   265A      9.738047  
     266A      9.944571   267A     10.039253   268A     10.258629  
     269A     11.227435   270A     11.807164   271A     12.183187  
     272A     13.576210   273A     13.940652   274A     15.645577  
     275A     15.975701   276A     65.473335  

    Final Occupation by Irrep:
              A 
    DOCC [    10 ]
    NA   [    10 ]
    NB   [    10 ]

  @DF-RKS Final Energy:  -152.87096416677852

   => Energetics <=

    Nuclear Repulsion Energy =             37.2350682651667384
    One-Electron Energy =                -283.8279175299546750
    Two-Electron Energy =                 112.3275788043338537
    DFT Exchange-Correlation Energy =     -18.6055120163244503
    Empirical Dispersion Energy =          -0.0001816900000000
    VV10 Nonlocal Energy =                  0.0000000000000000
    Total Energy =                       -152.8709641667785206

Computation Completed


Properties will be evaluated at   0.000000,   0.000000,   0.000000 [a0]

Properties computed using the SCF density matrix


 Multipole Moments:

 ------------------------------------------------------------------------------------
     Multipole            Electronic (a.u.)      Nuclear  (a.u.)        Total (a.u.)
 ------------------------------------------------------------------------------------

 L = 1.  Multiply by 2.5417464519 to convert [e a0] to [Debye]
 Dipole X            :        108.2717985         -108.8542616           -0.5824630
 Dipole Y            :        140.6913476         -140.4571518            0.2341958
 Dipole Z            :        -43.0753562           42.5561679           -0.5191884
 Magnitude           :                                                    0.8146579

 ------------------------------------------------------------------------------------

*** tstop() called on d-19-15-2 at Wed Sep 20 03:58:24 2023
Module time:
	user time   =      70.13 seconds =       1.17 minutes
	system time =       0.39 seconds =       0.01 minutes
	total time  =         75 seconds =       1.25 minutes
Total time:
	user time   =  134419.92 seconds =    2240.33 minutes
	system time =   68961.85 seconds =    1149.36 minutes
	total time  =     227400 seconds =    3790.00 minutes

    Psi4 stopped on: Wednesday, 20 September 2023 03:58AM
    Psi4 wall time for execution: 0:01:14.16


    -----------------------------------------------------------------------
          Psi4: An Open-Source Ab Initio Electronic Structure Package
                               Psi4 1.7 release

                         Git: Rev {HEAD} 6ce35a5 


    D. G. A. Smith, L. A. Burns, A. C. Simmonett, R. M. Parrish,
    M. C. Schieber, R. Galvelis, P. Kraus, H. Kruse, R. Di Remigio,
    A. Alenaizan, A. M. James, S. Lehtola, J. P. Misiewicz, M. Scheurer,
    R. A. Shaw, J. B. Schriber, Y. Xie, Z. L. Glick, D. A. Sirianni,
    J. S. O'Brien, J. M. Waldrop, A. Kumar, E. G. Hohenstein,
    B. P. Pritchard, B. R. Brooks, H. F. Schaefer III, A. Yu. Sokolov,
    K. Patkowski, A. E. DePrince III, U. Bozkaya, R. A. King,
    F. A. Evangelista, J. M. Turney, T. D. Crawford, C. D. Sherrill,
    J. Chem. Phys. 152(18) 184108 (2020). https://doi.org/10.1063/5.0006002

                            Additional Code Authors
    E. T. Seidl, C. L. Janssen, E. F. Valeev, M. L. Leininger,
    J. F. Gonthier, R. M. Richard, H. R. McAlexander, M. Saitow, X. Wang,
    P. Verma, M. H. Lechner, A. Jiang, S. Behnle, A. G. Heide,
    M. F. Herbst, and D. L. Poole

             Previous Authors, Complete List of Code Contributors,
                       and Citations for Specific Modules
    https://github.com/psi4/psi4/blob/master/codemeta.json
    https://github.com/psi4/psi4/graphs/contributors
    http://psicode.org/psi4manual/master/introduction.html#citing-psifour

    -----------------------------------------------------------------------


    Psi4 started on: Sunday, 17 September 2023 12:48PM

    Process ID: 258105
    Host:       d-19-15-2
    PSIDATADIR: /home/gridsan/kfisher/.conda/envs/p4env/share/psi4
    Memory:     18.6 GiB
    Threads:    1
    
  ==> Input QCSchema <==

--------------------------------------------------------------------------
{'driver': 'energy',
 'extras': {'psiapi': True, 'wfn_qcvars_only': True},
 'id': None,
 'keywords': {'D_CONVERGENCE': 1e-10, 'E_CONVERGENCE': 1e-10, 'function_kwargs': {'dft_functional': 'scan-d3zero2b'}},
 'model': {'basis': 'aug-cc-pvtz', 'method': 'scf'},
 'molecule': {'atom_labels': ['', '', '', '', '', '', '', '', ''],
              'atomic_numbers': [1, 1, 8, 1, 1, 8, 1, 1, 8],
              'fix_com': True,
              'fix_orientation': True,
              'fix_symmetry': 'c1',
              'fragment_charges': [0.0, 0.0, 0.0],
              'fragment_multiplicities': [1, 1, 1],
              'fragments': [[0, 1, 2], [3, 4, 5], [6, 7, 8]],
              'geometry': [-9.595127544459567, -7.930720041186992, 7.223091873439765, -7.14201982586296,
                           -8.651408862077707, 5.849457133803748, -8.964162920005588, -8.613936915818167,
                           5.672276979198659, -8.3073397934769, -6.792631140424466, 1.794014898710415,
                           -7.747445311957429, -4.6766690819255645, -0.11283252338928619, -7.211115337277191,
                           -6.323947691857242, 0.40588652660997254, -4.3022241965361845, -7.12640666295003,
                           2.431219209858042, -2.4433771408314, -9.105704861891496, 3.444638512856765,
                           -3.545619051932405, -7.770519812812331, 3.969004442464117],
              'mass_numbers': [1, 1, 16, 1, 1, 16, 1, 1, 16],
              'masses': [1.00782503223, 1.00782503223, 15.99491461957, 1.00782503223, 1.00782503223, 15.99491461957,
                         1.00782503223, 1.00782503223, 15.99491461957],
              'molecular_charge': 0.0,
              'molecular_multiplicity': 1,
              'name': 'H6O3',
              'provenance': {'creator': 'QCElemental',
                             'routine': 'qcelemental.molparse.from_string',
                             'version': 'v0.25.1'},
              'real': [True, True, True, False, False, False, True, True, True],
              'schema_name': 'qcschema_molecule',
              'schema_version': 2,
              'symbols': ['H', 'H', 'O', 'H', 'H', 'O', 'H', 'H', 'O'],
              'validated': True},
 'protocols': {'stdout': True},
 'provenance': {'creator': 'QCElemental', 'routine': 'qcelemental.models.results', 'version': 'v0.25.1'},
 'schema_name': 'qcschema_input',
 'schema_version': 1}
--------------------------------------------------------------------------

Scratch directory: /home/gridsan/kfisher/scratch/

*** tstart() called on d-19-15-2
*** at Wed Sep 20 03:58:24 2023

   => Loading Basis Set <=

    Name: AUG-CC-PVTZ
    Role: ORBITAL
    Keyword: BASIS
    atoms 1-2, 4-5, 7-8 entry H          line    40 file /home/gridsan/kfisher/.conda/envs/p4env/share/psi4/basis/aug-cc-pvtz.gbs 
    atoms 3, 6, 9       entry O          line   331 file /home/gridsan/kfisher/.conda/envs/p4env/share/psi4/basis/aug-cc-pvtz.gbs 

   => SCAN-D3: Empirical Dispersion <=

    Grimme's -D3 (zero-damping) Dispersion Correction
    Grimme S.; Antony J.; Ehrlich S.; Krieg H. (2010), J. Chem. Phys., 132: 154104
    Parametrisation from:    J.G. Brandenburg, J. E. Bates, J. Sun, J.P. Perdew, Phys. Rev. B 94, 115144, 2016

        s6 =       1.000000
        s8 =       0.000000
       sr6 =       1.324000
    alpha6 =      14.000000
       sr8 =       1.000000


         ---------------------------------------------------------
                                   SCF
               by Justin Turney, Rob Parrish, Andy Simmonett
                          and Daniel G. A. Smith
                              RKS Reference
                        1 Threads,  19073 MiB Core
         ---------------------------------------------------------

  ==> Geometry <==

    Molecular point group: c1
    Full point group: C1

    Geometry (in Bohr), charge = 0, multiplicity = 1:

       Center              X                  Y                   Z               Mass       
    ------------   -----------------  -----------------  -----------------  -----------------
         H           -9.595127544460    -7.930720041187     7.223091873440     1.007825032230
         H           -7.142019825863    -8.651408862078     5.849457133804     1.007825032230
         O           -8.964162920006    -8.613936915818     5.672276979199    15.994914619570
      Gh(H)          -8.307339793477    -6.792631140424     1.794014898710     1.007825032230
      Gh(H)          -7.747445311957    -4.676669081926    -0.112832523389     1.007825032230
      Gh(O)          -7.211115337277    -6.323947691857     0.405886526610    15.994914619570
         H           -4.302224196536    -7.126406662950     2.431219209858     1.007825032230
         H           -2.443377140831    -9.105704861891     3.444638512857     1.007825032230
         O           -3.545619051932    -7.770519812812     3.969004442464    15.994914619570

  Running in c1 symmetry.

  Rotational constants: A =      0.16673  B =      0.00946  C =      0.00922 [cm^-1]
  Rotational constants: A =   4998.54537  B =    283.54595  C =    276.30011 [MHz]
  Nuclear repulsion =   35.694607728461122

  Charge       = 0
  Multiplicity = 1
  Electrons    = 20
  Nalpha       = 10
  Nbeta        = 10

  ==> Algorithm <==

  SCF Algorithm Type is DF.
  DIIS enabled.
  MOM disabled.
  Fractional occupation disabled.
  Guess Type is SAD.
  Energy threshold   = 1.00e-10
  Density threshold  = 1.00e-10
  Integral threshold = 1.00e-12

  ==> Primary Basis <==

  Basis Set: AUG-CC-PVTZ
    Blend: AUG-CC-PVTZ
    Number of shells: 96
    Number of basis functions: 276
    Number of Cartesian functions: 315
    Spherical Harmonics?: true
    Max angular momentum: 3

  ==> DFT Potential <==

   => Composite Functional: SCAN-D3ZERO2B <= 

    SCAN Meta-GGA XC Functional
(10.1103/PhysRevLett.115.036402)
    J. Sun, A. Ruzsinszky, J. P. Perdew  Phys. Rev. Lett. 115, 036402, 2015


    Deriv               =              1
    GGA                 =           TRUE
    Meta                =           TRUE

    Exchange Hybrid     =          FALSE
    MP2 Hybrid          =          FALSE

   => Exchange Functionals <=

    1.0000   XC_MGGA_X_SCAN

   => Correlation Functionals <=

    1.0000   XC_MGGA_C_SCAN

   => LibXC Density Thresholds  <==

    XC_MGGA_C_SCAN:  1.00E-15 
    XC_MGGA_X_SCAN:  1.00E-15 

   => Molecular Quadrature <=

    Radial Scheme          =       TREUTLER
    Pruning Scheme         =           NONE
    Nuclear Scheme         =       TREUTLER

    Blocking Scheme        =         OCTREE
    BS radius alpha        =              1
    Pruning alpha          =              1
    Radial Points          =             75
    Spherical Points       =            302
    Total Points           =         197088
    Total Blocks           =           1522
    Max Points             =            256
    Max Functions          =            276
    Weights Tolerance      =       1.00E-15

   => Loading Basis Set <=

    Name: (AUG-CC-PVTZ AUX)
    Role: JKFIT
    Keyword: DF_BASIS_SCF
    atoms 1-2, 4-5, 7-8 entry H          line    70 file /home/gridsan/kfisher/.conda/envs/p4env/share/psi4/basis/aug-cc-pvtz-jkfit.gbs 
    atoms 3, 6, 9       entry O          line   286 file /home/gridsan/kfisher/.conda/envs/p4env/share/psi4/basis/aug-cc-pvtz-jkfit.gbs 

  ==> Integral Setup <==

  DFHelper Memory: AOs need 0.344 GiB; user supplied 10.838 GiB. Using in-core AOs.

  ==> MemDFJK: Density-Fitted J/K Matrices <==

    J tasked:                   Yes
    K tasked:                    No
    wK tasked:                   No
    OpenMP threads:               1
    Memory [MiB]:             11098
    Algorithm:                 Core
    Schwarz Cutoff:           1E-12
    Mask sparsity (%):       2.5310
    Fitting Condition:        1E-10

   => Auxiliary Basis Set <=

  Basis Set: (AUG-CC-PVTZ AUX)
    Blend: AUG-CC-PVTZ-JKFIT
    Number of shells: 174
    Number of basis functions: 588
    Number of Cartesian functions: 723
    Spherical Harmonics?: true
    Max angular momentum: 4

  Cached 100.0% of DFT collocation blocks in 3.132 [GiB].

  Minimum eigenvalue in the overlap matrix is 1.6302493532E-04.
  Reciprocal condition number of the overlap matrix is 1.4268811080E-05.
    Using symmetric orthogonalization.

  ==> Pre-Iterations <==

  SCF Guess: Superposition of Atomic Densities via on-the-fly atomic UHF (no occupation information).

   -------------------------
    Irrep   Nso     Nmo    
   -------------------------
     A        276     276 
   -------------------------
    Total     276     276
   -------------------------

  ==> Iterations <==

                           Total Energy        Delta E     RMS |[F,P]|

   @DF-RKS iter SAD:  -152.15671855385207   -1.52157e+02   0.00000e+00 
   @DF-RKS iter   1:  -152.50835570604278   -3.51637e-01   3.70019e-03 DIIS/ADIIS
   @DF-RKS iter   2:  -151.49394291079975    1.01441e+00   6.75764e-03 DIIS/ADIIS
   @DF-RKS iter   3:  -152.86697903295371   -1.37304e+00   2.99317e-04 DIIS/ADIIS
   @DF-RKS iter   4:  -152.86923452973710   -2.25550e-03   1.79436e-04 DIIS/ADIIS
   @DF-RKS iter   5:  -152.86998839812102   -7.53868e-04   5.43537e-05 DIIS
   @DF-RKS iter   6:  -152.87006432211933   -7.59240e-05   8.07492e-06 DIIS
   @DF-RKS iter   7:  -152.87006620274900   -1.88063e-06   9.23027e-07 DIIS
   @DF-RKS iter   8:  -152.87006622566298   -2.29140e-08   2.30431e-07 DIIS
   @DF-RKS iter   9:  -152.87006622718971   -1.52673e-09   3.09031e-08 DIIS
   @DF-RKS iter  10:  -152.87006622721938   -2.96723e-11   2.72998e-09 DIIS
   @DF-RKS iter  11:  -152.87006622721893    4.54747e-13   6.21884e-10 DIIS
   @DF-RKS iter  12:  -152.87006622721887    5.68434e-14   1.02082e-10 DIIS
   @DF-RKS iter  13:  -152.87006622721933   -4.54747e-13   1.68167e-11 DIIS
  Energy and wave function converged.


  ==> Post-Iterations <==

   Electrons on quadrature grid:
      Ntotal   =   20.0000040515 ; deviation = 4.051e-06 

    Orbital Energies [Eh]
    ---------------------

    Doubly Occupied:                                                      

       1A    -18.984376     2A    -18.948435     3A     -0.996545  
       4A     -0.960884     5A     -0.516480     6A     -0.482593  
       7A     -0.375051     8A     -0.337714     9A     -0.296799  
      10A     -0.262410  

    Virtual:                                                              

      11A     -0.018914    12A      0.014044    13A      0.028626  
      14A      0.051113    15A      0.053386    16A      0.056296  
      17A      0.087442    18A      0.090390    19A      0.102359  
      20A      0.109457    21A      0.126213    22A      0.137805  
      23A      0.151808    24A      0.156851    25A      0.159920  
      26A      0.166140    27A      0.181460    28A      0.191311  
      29A      0.202643    30A      0.216447    31A      0.225163  
      32A      0.238789    33A      0.262205    34A      0.274290  
      35A      0.289957    36A      0.302768    37A      0.310362  
      38A      0.319670    39A      0.325528    40A      0.338323  
      41A      0.347831    42A      0.354351    43A      0.367856  
      44A      0.375239    45A      0.383328    46A      0.389929  
      47A      0.397309    48A      0.416485    49A      0.435934  
      50A      0.465955    51A      0.475680    52A      0.494080  
      53A      0.514712    54A      0.547283    55A      0.584860  
      56A      0.605792    57A      0.630541    58A      0.636109  
      59A      0.639730    60A      0.659257    61A      0.669120  
      62A      0.688462    63A      0.703698    64A      0.723110  
      65A      0.743259    66A      0.764678    67A      0.773206  
      68A      0.793235    69A      0.796883    70A      0.816149  
      71A      0.825883    72A      0.832098    73A      0.852502  
      74A      0.856198    75A      0.874183    76A      0.879224  
      77A      0.895446    78A      0.909906    79A      0.916413  
      80A      0.928818    81A      0.942086    82A      0.948512  
      83A      0.964482    84A      0.976072    85A      0.989514  
      86A      0.994059    87A      1.024020    88A      1.029299  
      89A      1.045628    90A      1.055303    91A      1.069237  
      92A      1.094002    93A      1.103125    94A      1.115606  
      95A      1.131684    96A      1.154756    97A      1.173637  
      98A      1.200746    99A      1.207069   100A      1.239328  
     101A      1.242468   102A      1.261907   103A      1.300443  
     104A      1.328707   105A      1.337013   106A      1.348159  
     107A      1.388955   108A      1.412921   109A      1.449151  
     110A      1.457389   111A      1.473781   112A      1.519949  
     113A      1.535094   114A      1.543723   115A      1.556008  
     116A      1.579117   117A      1.623804   118A      1.641104  
     119A      1.680786   120A      1.725147   121A      1.737766  
     122A      1.766439   123A      1.800110   124A      1.842943  
     125A      1.863173   126A      1.874740   127A      1.894220  
     128A      1.926752   129A      1.968361   130A      2.013389  
     131A      2.075027   132A      2.127481   133A      2.151906  
     134A      2.162873   135A      2.203391   136A      2.232175  
     137A      2.252287   138A      2.265112   139A      2.309381  
     140A      2.333639   141A      2.349344   142A      2.367247  
     143A      2.378788   144A      2.395917   145A      2.435721  
     146A      2.461612   147A      2.488471   148A      2.533827  
     149A      2.568233   150A      2.577628   151A      2.586175  
     152A      2.621447   153A      2.633333   154A      2.660088  
     155A      2.680718   156A      2.695907   157A      2.738610  
     158A      2.759890   159A      2.780627   160A      2.810687  
     161A      2.836642   162A      2.878542   163A      2.902989  
     164A      2.932421   165A      3.007801   166A      3.174534  
     167A      3.213927   168A      3.265866   169A      3.359219  
     170A      3.384796   171A      3.428465   172A      3.577215  
     173A      3.591064   174A      3.659466   175A      3.746182  
     176A      3.779126   177A      3.896983   178A      3.954889  
     179A      3.976003   180A      4.048963   181A      4.083827  
     182A      4.114715   183A      4.155726   184A      4.166580  
     185A      4.206369   186A      4.267258   187A      4.297511  
     188A      4.324447   189A      4.341643   190A      4.348414  
     191A      4.390971   192A      4.417364   193A      4.422267  
     194A      4.452017   195A      4.492320   196A      4.523790  
     197A      4.532375   198A      4.594336   199A      4.597926  
     200A      4.661493   201A      4.706750   202A      4.755736  
     203A      4.792529   204A      4.838063   205A      4.974001  
     206A      5.021776   207A      5.053964   208A      5.057841  
     209A      5.080002   210A      5.100725   211A      5.112493  
     212A      5.151657   213A      5.188628   214A      5.210327  
     215A      5.263911   216A      5.275600   217A      5.344392  
     218A      5.371478   219A      5.461820   220A      5.563321  
     221A      5.614943   222A      5.624665   223A      5.687151  
     224A      5.776318   225A      5.924215   226A      5.972171  
     227A      6.079367   228A      6.276650   229A      6.311512  
     230A      6.337024   231A      6.463659   232A      6.519853  
     233A      6.542305   234A      6.655791   235A      6.711201  
     236A      6.729661   237A      6.922129   238A      6.939451  
     239A      6.961416   240A      6.998013   241A      7.008025  
     242A      7.027264   243A      7.048749   244A      7.068151  
     245A      7.080603   246A      7.107679   247A      7.126949  
     248A      7.179557   249A      7.231791   250A      7.401049  
     251A      7.414130   252A      7.663388   253A      7.685166  
     254A      7.708068   255A      7.734092   256A      7.839324  
     257A      7.919856   258A      8.168756   259A      8.196023  
     260A      8.403351   261A      8.577652   262A      8.603170  
     263A      8.841230   264A      8.933605   265A      9.803632  
     266A     10.000391   267A     10.075372   268A     10.279195  
     269A     11.220637   270A     11.847746   271A     12.307787  
     272A     13.582387   273A     13.933774   274A     15.530872  
     275A     15.825501   276A     66.124397  

    Final Occupation by Irrep:
              A 
    DOCC [    10 ]
    NA   [    10 ]
    NB   [    10 ]

  @DF-RKS Final Energy:  -152.87006622721933

   => Energetics <=

    Nuclear Repulsion Energy =             35.6946077284611221
    One-Electron Energy =                -280.7760747223414910
    Two-Electron Energy =                 110.8083926085883206
    DFT Exchange-Correlation Energy =     -18.5967967519272399
    Empirical Dispersion Energy =          -0.0001950900000000
    VV10 Nonlocal Energy =                  0.0000000000000000
    Total Energy =                       -152.8700662272192972

[...]
    DFT Exchange-Correlation Energy =      -9.2954265033946566
    Empirical Dispersion Energy =          -0.0000001300000000
    VV10 Nonlocal Energy =                  0.0000000000000000
    Total Energy =                        -76.4312394694468651

Computation Completed


Properties will be evaluated at   0.000000,   0.000000,   0.000000 [a0]

Properties computed using the SCF density matrix


 Multipole Moments:

 ------------------------------------------------------------------------------------
     Multipole            Electronic (a.u.)      Nuclear  (a.u.)        Total (a.u.)
 ------------------------------------------------------------------------------------

 L = 1.  Multiply by 2.5417464519 to convert [e a0] to [Debye]
 Dipole X            :         73.2123554          -73.7437078           -0.5313524
 Dipole Y            :         62.4460372          -62.0608818            0.3851555
 Dipole Z            :         -4.6466248            4.9282746            0.2816498
 Magnitude           :                                                    0.7141476

 ------------------------------------------------------------------------------------

*** tstop() called on d-19-15-2 at Wed Sep 20 04:06:36 2023
Module time:
	user time   =      23.64 seconds =       0.39 minutes
	system time =       0.11 seconds =       0.00 minutes
	total time  =         24 seconds =       0.40 minutes
Total time:
	user time   =  134878.43 seconds =    2247.97 minutes
	system time =   68965.65 seconds =    1149.43 minutes
	total time  =     227892 seconds =    3798.20 minutes

    Psi4 stopped on: Wednesday, 20 September 2023 04:06AM
    Psi4 wall time for execution: 0:00:24.08


    -----------------------------------------------------------------------
          Psi4: An Open-Source Ab Initio Electronic Structure Package
                               Psi4 1.7 release

                         Git: Rev {HEAD} 6ce35a5 


    D. G. A. Smith, L. A. Burns, A. C. Simmonett, R. M. Parrish,
    M. C. Schieber, R. Galvelis, P. Kraus, H. Kruse, R. Di Remigio,
    A. Alenaizan, A. M. James, S. Lehtola, J. P. Misiewicz, M. Scheurer,
    R. A. Shaw, J. B. Schriber, Y. Xie, Z. L. Glick, D. A. Sirianni,
    J. S. O'Brien, J. M. Waldrop, A. Kumar, E. G. Hohenstein,
    B. P. Pritchard, B. R. Brooks, H. F. Schaefer III, A. Yu. Sokolov,
    K. Patkowski, A. E. DePrince III, U. Bozkaya, R. A. King,
    F. A. Evangelista, J. M. Turney, T. D. Crawford, C. D. Sherrill,
    J. Chem. Phys. 152(18) 184108 (2020). https://doi.org/10.1063/5.0006002

                            Additional Code Authors
    E. T. Seidl, C. L. Janssen, E. F. Valeev, M. L. Leininger,
    J. F. Gonthier, R. M. Richard, H. R. McAlexander, M. Saitow, X. Wang,
    P. Verma, M. H. Lechner, A. Jiang, S. Behnle, A. G. Heide,
    M. F. Herbst, and D. L. Poole

             Previous Authors, Complete List of Code Contributors,
                       and Citations for Specific Modules
    https://github.com/psi4/psi4/blob/master/codemeta.json
    https://github.com/psi4/psi4/graphs/contributors
    http://psicode.org/psi4manual/master/introduction.html#citing-psifour

    -----------------------------------------------------------------------


    Psi4 started on: Sunday, 17 September 2023 12:48PM

    Process ID: 258105
    Host:       d-19-15-2
    PSIDATADIR: /home/gridsan/kfisher/.conda/envs/p4env/share/psi4
    Memory:     18.6 GiB
    Threads:    1
    
  ==> Input QCSchema <==

--------------------------------------------------------------------------
{'driver': 'energy',
 'extras': {'psiapi': True, 'wfn_qcvars_only': True},
 'id': None,
 'keywords': {'D_CONVERGENCE': 1e-10, 'E_CONVERGENCE': 1e-10, 'function_kwargs': {'dft_functional': 'scan-d3zero2b'}},
 'model': {'basis': 'aug-cc-pvtz', 'method': 'scf'},
 'molecule': {'atom_labels': ['', '', '', '', '', ''],
              'atomic_numbers': [1, 1, 8, 1, 1, 8],
              'fix_com': True,
              'fix_orientation': True,
              'fix_symmetry': 'c1',
              'fragment_charges': [0.0, 0.0],
              'fragment_multiplicities': [1, 1],
              'fragments': [[0, 1, 2], [3, 4, 5]],
              'geometry': [-8.3073397934769, -6.792631140424466, 1.794014898710415, -7.747445311957429,
                           -4.6766690819255645, -0.11283252338928619, -7.211115337277191, -6.323947691857242,
                           0.40588652660997254, -4.3022241965361845, -7.12640666295003, 2.431219209858042,
                           -2.4433771408314, -9.105704861891496, 3.444638512856765, -3.545619051932405,
                           -7.770519812812331, 3.969004442464117],
              'mass_numbers': [1, 1, 16, 1, 1, 16],
              'masses': [1.00782503223, 1.00782503223, 15.99491461957, 1.00782503223, 1.00782503223, 15.99491461957],
              'molecular_charge': 0.0,
              'molecular_multiplicity': 1,
              'name': 'H4O2',
              'provenance': {'creator': 'QCElemental',
                             'routine': 'qcelemental.molparse.from_string',
                             'version': 'v0.25.1'},
              'real': [True, True, True, True, True, True],
              'schema_name': 'qcschema_molecule',
              'schema_version': 2,
              'symbols': ['H', 'H', 'O', 'H', 'H', 'O'],
              'validated': True},
 'protocols': {'stdout': True},
 'provenance': {'creator': 'QCElemental', 'routine': 'qcelemental.models.results', 'version': 'v0.25.1'},
 'schema_name': 'qcschema_input',
 'schema_version': 1}
--------------------------------------------------------------------------

Scratch directory: /home/gridsan/kfisher/scratch/

*** tstart() called on d-19-15-2
*** at Wed Sep 20 04:06:36 2023

   => Loading Basis Set <=

    Name: AUG-CC-PVTZ
    Role: ORBITAL
    Keyword: BASIS
    atoms 1-2, 4-5 entry H          line    40 file /home/gridsan/kfisher/.conda/envs/p4env/share/psi4/basis/aug-cc-pvtz.gbs 
    atoms 3, 6     entry O          line   331 file /home/gridsan/kfisher/.conda/envs/p4env/share/psi4/basis/aug-cc-pvtz.gbs 

   => SCAN-D3: Empirical Dispersion <=

    Grimme's -D3 (zero-damping) Dispersion Correction
    Grimme S.; Antony J.; Ehrlich S.; Krieg H. (2010), J. Chem. Phys., 132: 154104
    Parametrisation from:    J.G. Brandenburg, J. E. Bates, J. Sun, J.P. Perdew, Phys. Rev. B 94, 115144, 2016

        s6 =       1.000000
        s8 =       0.000000
       sr6 =       1.324000
    alpha6 =      14.000000
       sr8 =       1.000000


         ---------------------------------------------------------
                                   SCF
               by Justin Turney, Rob Parrish, Andy Simmonett
                          and Daniel G. A. Smith
                              RKS Reference
                        1 Threads,  19073 MiB Core
         ---------------------------------------------------------

  ==> Geometry <==

    Molecular point group: c1
    Full point group: C1

    Geometry (in Bohr), charge = 0, multiplicity = 1:

       Center              X                  Y                   Z               Mass       
    ------------   -----------------  -----------------  -----------------  -----------------
         H           -8.307339793477    -6.792631140424     1.794014898710     1.007825032230
         H           -7.747445311957    -4.676669081926    -0.112832523389     1.007825032230
         O           -7.211115337277    -6.323947691857     0.405886526610    15.994914619570
         H           -4.302224196536    -7.126406662950     2.431219209858     1.007825032230
         H           -2.443377140831    -9.105704861891     3.444638512857     1.007825032230
         O           -3.545619051932    -7.770519812812     3.969004442464    15.994914619570

  Running in c1 symmetry.

  Rotational constants: A =      0.22874  B =      0.01998  C =      0.01842 [cm^-1]
  Rotational constants: A =   6857.51947  B =    598.94958  C =    552.28643 [MHz]
  Nuclear repulsion =   37.235068265166738

  Charge       = 0
  Multiplicity = 1
  Electrons    = 20
  Nalpha       = 10
  Nbeta        = 10

  ==> Algorithm <==

  SCF Algorithm Type is DF.
  DIIS enabled.
  MOM disabled.
  Fractional occupation disabled.
  Guess Type is SAD.
  Energy threshold   = 1.00e-10
  Density threshold  = 1.00e-10
  Integral threshold = 1.00e-12

  ==> Primary Basis <==

  Basis Set: AUG-CC-PVTZ
    Blend: AUG-CC-PVTZ
    Number of shells: 64
    Number of basis functions: 184
    Number of Cartesian functions: 210
    Spherical Harmonics?: true
    Max angular momentum: 3

  ==> DFT Potential <==

   => Composite Functional: SCAN-D3ZERO2B <= 

    SCAN Meta-GGA XC Functional
(10.1103/PhysRevLett.115.036402)
    J. Sun, A. Ruzsinszky, J. P. Perdew  Phys. Rev. Lett. 115, 036402, 2015


    Deriv               =              1
    GGA                 =           TRUE
    Meta                =           TRUE

    Exchange Hybrid     =          FALSE
    MP2 Hybrid          =          FALSE

   => Exchange Functionals <=

    1.0000   XC_MGGA_X_SCAN

   => Correlation Functionals <=

    1.0000   XC_MGGA_C_SCAN

   => LibXC Density Thresholds  <==

    XC_MGGA_C_SCAN:  1.00E-15 
    XC_MGGA_X_SCAN:  1.00E-15 

   => Molecular Quadrature <=

    Radial Scheme          =       TREUTLER
    Pruning Scheme         =           NONE
    Nuclear Scheme         =       TREUTLER

    Blocking Scheme        =         OCTREE
    BS radius alpha        =              1
    Pruning alpha          =              1
    Radial Points          =             75
    Spherical Points       =            302
    Total Points           =         132471
    Total Blocks           =           1043
    Max Points             =            256
    Max Functions          =            184
    Weights Tolerance      =       1.00E-15

   => Loading Basis Set <=

    Name: (AUG-CC-PVTZ AUX)
    Role: JKFIT
    Keyword: DF_BASIS_SCF
    atoms 1-2, 4-5 entry H          line    70 file /home/gridsan/kfisher/.conda/envs/p4env/share/psi4/basis/aug-cc-pvtz-jkfit.gbs 
    atoms 3, 6     entry O          line   286 file /home/gridsan/kfisher/.conda/envs/p4env/share/psi4/basis/aug-cc-pvtz-jkfit.gbs 

  ==> Integral Setup <==

  DFHelper Memory: AOs need 0.106 GiB; user supplied 12.452 GiB. Using in-core AOs.

  ==> MemDFJK: Density-Fitted J/K Matrices <==

    J tasked:                   Yes
    K tasked:                    No
    wK tasked:                   No
    OpenMP threads:               1
    Memory [MiB]:             12750
    Algorithm:                 Core
    Schwarz Cutoff:           1E-12
    Mask sparsity (%):       0.9275
    Fitting Condition:        1E-10

   => Auxiliary Basis Set <=

  Basis Set: (AUG-CC-PVTZ AUX)
    Blend: AUG-CC-PVTZ-JKFIT
    Number of shells: 116
    Number of basis functions: 392
    Number of Cartesian functions: 482
    Spherical Harmonics?: true
    Max angular momentum: 4

  Cached 100.0% of DFT collocation blocks in 1.518 [GiB].

  Minimum eigenvalue in the overlap matrix is 2.3371187971E-04.
  Reciprocal condition number of the overlap matrix is 2.5263635652E-05.
    Using symmetric orthogonalization.

  ==> Pre-Iterations <==

  SCF Guess: Superposition of Atomic Densities via on-the-fly atomic UHF (no occupation information).

   -------------------------
    Irrep   Nso     Nmo    
   -------------------------
     A        184     184 
   -------------------------
    Total     184     184
   -------------------------

  ==> Iterations <==

                           Total Energy        Delta E     RMS |[F,P]|

   @DF-RKS iter SAD:  -152.18337244476501   -1.52183e+02   0.00000e+00 
   @DF-RKS iter   1:  -152.51674938251514   -3.33377e-01   5.50120e-03 DIIS/ADIIS
   @DF-RKS iter   2:  -151.55228013969702    9.64469e-01   9.93390e-03 DIIS/ADIIS
   @DF-RKS iter   3:  -152.86811764441799   -1.31584e+00   4.29263e-04 DIIS/ADIIS
   @DF-RKS iter   4:  -152.86904100481587   -9.23360e-04   4.02224e-04 DIIS/ADIIS
   @DF-RKS iter   5:  -152.87084968299470   -1.80868e-03   6.35953e-05 DIIS
   @DF-RKS iter   6:  -152.87089572871682   -4.60457e-05   1.32695e-05 DIIS
   @DF-RKS iter   7:  -152.87089807782399   -2.34911e-06   1.53909e-06 DIIS
   @DF-RKS iter   8:  -152.87089810519487   -2.73709e-08   3.32993e-07 DIIS
   @DF-RKS iter   9:  -152.87089810658043   -1.38556e-09   4.74032e-08 DIIS
   @DF-RKS iter  10:  -152.87089810661129   -3.08660e-11   8.07738e-09 DIIS
   @DF-RKS iter  11:  -152.87089810661172   -4.26326e-13   1.35248e-09 DIIS
   @DF-RKS iter  12:  -152.87089810661200   -2.84217e-13   1.58611e-10 DIIS
   @DF-RKS iter  13:  -152.87089810661180    1.98952e-13   4.52204e-11 DIIS
  Energy and wave function converged.


  ==> Post-Iterations <==

   Electrons on quadrature grid:
      Ntotal   =   20.0000015330 ; deviation = 1.533e-06 

    Orbital Energies [Eh]
    ---------------------

    Doubly Occupied:                                                      

       1A    -18.990908     2A    -18.942239     3A     -1.004567  
       4A     -0.955698     5A     -0.525483     6A     -0.478175  
       7A     -0.383490     8A     -0.333434     9A     -0.302281  
      10A     -0.258407  

    Virtual:                                                              

      11A     -0.019630    12A      0.017379    13A      0.031231  
      14A      0.054391    15A      0.082428    16A      0.088625  
      17A      0.108674    18A      0.119814    19A      0.133668  
      20A      0.140188    21A      0.156895    22A      0.175924  
      23A      0.179889    24A      0.193650    25A      0.202234  
      26A      0.205300    27A      0.248388    28A      0.264929  
      29A      0.277866    30A      0.303179    31A      0.323712  
      32A      0.333352    33A      0.348583    34A      0.357990  
      35A      0.365585    36A      0.368441    37A      0.378186  
      38A      0.454292    39A      0.490587    40A      0.527906  
      41A      0.540874    42A      0.579731    43A      0.602842  
      44A      0.609378    45A      0.627012    46A      0.638920  
      47A      0.657158    48A      0.679614    49A      0.734147  
      50A      0.760847    51A      0.767415    52A      0.786910  
      53A      0.801277    54A      0.824551    55A      0.841729  
      56A      0.848283    57A      0.870439    58A      0.880064  
      59A      0.886783    60A      0.923024    61A      0.937481  
      62A      0.949670    63A      0.958663    64A      0.997212  
      65A      1.012291    66A      1.051008    67A      1.066047  
      68A      1.077993    69A      1.098411    70A      1.114104  
      71A      1.143777    72A      1.161987    73A      1.195056  
      74A      1.223930    75A      1.245335    76A      1.309837  
      77A      1.338368    78A      1.349603    79A      1.428901  
      80A      1.451613    81A      1.481554    82A      1.520543  
      83A      1.543248    84A      1.602570    85A      1.676298  
      86A      1.699847    87A      1.756385    88A      1.830405  
      89A      1.873253    90A      1.922783    91A      1.970095  
      92A      2.078334    93A      2.103586    94A      2.112478  
      95A      2.174002    96A      2.193255    97A      2.220149  
      98A      2.242967    99A      2.283049   100A      2.295810  
     101A      2.305463   102A      2.327329   103A      2.375203  
     104A      2.421443   105A      2.481834   106A      2.483863  
     107A      2.523079   108A      2.562756   109A      2.610475  
     110A      2.641670   111A      2.690398   112A      2.719229  
     113A      2.753202   114A      2.768312   115A      2.807133  
     116A      2.965496   117A      3.559668   118A      3.566785  
     119A      3.609418   120A      3.820964   121A      3.878196  
     122A      3.908999   123A      3.930572   124A      4.023215  
     125A      4.086874   126A      4.124677   127A      4.151943  
     128A      4.172075   129A      4.230016   130A      4.247803  
     131A      4.266795   132A      4.282102   133A      4.312523  
     134A      4.327959   135A      4.368005   136A      4.450677  
     137A      4.474620   138A      4.501555   139A      4.521709  
     140A      4.600208   141A      4.697286   142A      4.779603  
     143A      5.020710   144A      5.045427   145A      5.051360  
     146A      5.093906   147A      5.125975   148A      5.156338  
     149A      5.174051   150A      5.240576   151A      5.357725  
     152A      5.382178   153A      5.555780   154A      5.565563  
     155A      5.969146   156A      6.006123   157A      6.282106  
     158A      6.299152   159A      6.486774   160A      6.519157  
     161A      6.630530   162A      6.685695   163A      6.818750  
     164A      6.904597   165A      6.927922   166A      6.929073  
     167A      6.965691   168A      6.993762   169A      7.009388  
     170A      7.051104   171A      7.069823   172A      7.120432  
     173A      7.130563   174A      7.203477   175A      7.361010  
     176A      7.446772   177A      7.602359   178A      7.639682  
     179A      7.768951   180A      7.815242   181A      8.544119  
     182A      8.576926   183A     15.367648   184A     15.791969  

    Final Occupation by Irrep:
              A 
    DOCC [    10 ]
    NA   [    10 ]
    NB   [    10 ]

  @DF-RKS Final Energy:  -152.87089810661180

   => Energetics <=

    Nuclear Repulsion Energy =             37.2350682651667384
    One-Electron Energy =                -283.8269153895281534
    Two-Electron Energy =                 112.3264797917754265
    DFT Exchange-Correlation Energy =     -18.6053490840258284
    Empirical Dispersion Energy =          -0.0001816900000000
    VV10 Nonlocal Energy =                  0.0000000000000000
    Total Energy =                       -152.8708981066118042

Computation Completed


Properties will be evaluated at   0.000000,   0.000000,   0.000000 [a0]

Properties computed using the SCF density matrix


 Multipole Moments:

 ------------------------------------------------------------------------------------
     Multipole            Electronic (a.u.)      Nuclear  (a.u.)        Total (a.u.)
 ------------------------------------------------------------------------------------

 L = 1.  Multiply by 2.5417464519 to convert [e a0] to [Debye]
 Dipole X            :        108.2717075         -108.8542616           -0.5825540
 Dipole Y            :        140.6910455         -140.4571518            0.2338937
 Dipole Z            :        -43.0762884           42.5561679           -0.5201205
 Magnitude           :                                                    0.8152305

 ------------------------------------------------------------------------------------

*** tstop() called on d-19-15-2 at Wed Sep 20 04:07:02 2023
Module time:
	user time   =      25.18 seconds =       0.42 minutes
	system time =       0.10 seconds =       0.00 minutes
	total time  =         26 seconds =       0.43 minutes
Total time:
	user time   =  134903.66 seconds =    2248.39 minutes
	system time =   68965.77 seconds =    1149.43 minutes
	total time  =     227918 seconds =    3798.63 minutes

    Psi4 stopped on: Wednesday, 20 September 2023 04:07AM
    Psi4 wall time for execution: 0:00:25.40


  //>>>>>>>>>>>>>>>>>>>>>>>>>>>>>>>>>>>//
  //          ManyBody Results         //
  //<<<<<<<<<<<<<<<<<<<<<<<<<<<<<<<<<<<//


   ==> N-Body: Counterpoise Corrected (CP) energies <==

        n-Body     Total Energy            Interaction Energy                          N-body Contribution to Interaction Energy
                   [Eh]                    [Eh]                  [kcal/mol]            [Eh]                  [kcal/mol]
             1  N/A                         0.000000000000        0.000000000000        0.000000000000        0.000000000000
  FULL/RTN   2  N/A                        -0.008421669949       -5.284677677758       -0.008421669949       -5.284677677758


