Scratch directory: /home/gridsan/kfisher/scratch/

  //>>>>>>>>>>>>>>>>>>>>>>>>>>>>>>>>>>>>>>>>//
  // ManyBody Setup: N-Body Levels [1, 2, 3]//
  //<<<<<<<<<<<<<<<<<<<<<<<<<<<<<<<<<<<<<<<<//

        Number of 1-body computations:     3
        Number of 2-body computations:     3
        Number of 3-body computations:     1

    -----------------------------------------------------------------------
          Psi4: An Open-Source Ab Initio Electronic Structure Package
                               Psi4 1.7 release

                         Git: Rev {HEAD} 6ce35a5 


    D. G. A. Smith, L. A. Burns, A. C. Simmonett, R. M. Parrish,
    M. C. Schieber, R. Galvelis, P. Kraus, H. Kruse, R. Di Remigio,
    A. Alenaizan, A. M. James, S. Lehtola, J. P. Misiewicz, M. Scheurer,
    R. A. Shaw, J. B. Schriber, Y. Xie, Z. L. Glick, D. A. Sirianni,
    J. S. O'Brien, J. M. Waldrop, A. Kumar, E. G. Hohenstein,
    B. P. Pritchard, B. R. Brooks, H. F. Schaefer III, A. Yu. Sokolov,
    K. Patkowski, A. E. DePrince III, U. Bozkaya, R. A. King,
    F. A. Evangelista, J. M. Turney, T. D. Crawford, C. D. Sherrill,
    J. Chem. Phys. 152(18) 184108 (2020). https://doi.org/10.1063/5.0006002

                            Additional Code Authors
    E. T. Seidl, C. L. Janssen, E. F. Valeev, M. L. Leininger,
    J. F. Gonthier, R. M. Richard, H. R. McAlexander, M. Saitow, X. Wang,
    P. Verma, M. H. Lechner, A. Jiang, S. Behnle, A. G. Heide,
    M. F. Herbst, and D. L. Poole

             Previous Authors, Complete List of Code Contributors,
                       and Citations for Specific Modules
    https://github.com/psi4/psi4/blob/master/codemeta.json
    https://github.com/psi4/psi4/graphs/contributors
    http://psicode.org/psi4manual/master/introduction.html#citing-psifour

    -----------------------------------------------------------------------


    Psi4 started on: Sunday, 17 September 2023 12:48PM

    Process ID: 258105
    Host:       d-19-15-2
    PSIDATADIR: /home/gridsan/kfisher/.conda/envs/p4env/share/psi4
    Memory:     18.6 GiB
    Threads:    1
    
  ==> Input QCSchema <==

--------------------------------------------------------------------------
{'driver': 'energy',
 'extras': {'psiapi': True, 'wfn_qcvars_only': True},
 'id': None,
 'keywords': {'D_CONVERGENCE': 1e-10, 'E_CONVERGENCE': 1e-10, 'function_kwargs': {}},
 'model': {'basis': 'aug-cc-pvtz', 'method': 'ccsd(t)'},
 'molecule': {'atom_labels': ['', '', '', '', '', '', '', '', ''],
              'atomic_numbers': [1, 1, 8, 1, 1, 8, 1, 1, 8],
              'fix_com': True,
              'fix_orientation': True,
              'fix_symmetry': 'c1',
              'fragment_charges': [0.0, 0.0, 0.0],
              'fragment_multiplicities': [1, 1, 1],
              'fragments': [[0, 1, 2], [3, 4, 5], [6, 7, 8]],
              'geometry': [-1.677933350296368, -2.842119160981593, -5.701029823601644, -4.233833175021524,
                           -1.4586854732891477, -4.790487078592016, -2.419644826312225, -1.215250934910409,
                           -5.267399131702672, -1.2039356895081763, 0.155233385610075, -2.224915824529379,
                           -0.1769199771121353, 2.6197960192668477, -1.1207825243439258, 0.0019871415072251794,
                           0.7899298979083906, -1.0186858185322842, -3.5118867602915778, -1.1931166483919666,
                           4.123098493295892, -2.4228477042250023, 0.20334887412055455, 1.7746173135668604,
                           -3.91627726631707, -0.7058225344343512, 2.4000386531989424],
              'mass_numbers': [1, 1, 16, 1, 1, 16, 1, 1, 16],
              'masses': [1.00782503223, 1.00782503223, 15.99491461957, 1.00782503223, 1.00782503223, 15.99491461957,
                         1.00782503223, 1.00782503223, 15.99491461957],
              'molecular_charge': 0.0,
              'molecular_multiplicity': 1,
              'name': 'H6O3',
              'provenance': {'creator': 'QCElemental',
                             'routine': 'qcelemental.molparse.from_string',
                             'version': 'v0.25.1'},
              'real': [True, True, True, False, False, False, False, False, False],
              'schema_name': 'qcschema_molecule',
              'schema_version': 2,
              'symbols': ['H', 'H', 'O', 'H', 'H', 'O', 'H', 'H', 'O'],
              'validated': True},
 'protocols': {'stdout': True},
 'provenance': {'creator': 'QCElemental', 'routine': 'qcelemental.models.results', 'version': 'v0.25.1'},
 'schema_name': 'qcschema_input',
 'schema_version': 1}
--------------------------------------------------------------------------

Scratch directory: /home/gridsan/kfisher/scratch/

*** tstart() called on d-19-15-2
*** at Tue Sep 19 00:16:43 2023

   => Loading Basis Set <=

    Name: AUG-CC-PVTZ
    Role: ORBITAL
    Keyword: BASIS
    atoms 1-2, 4-5, 7-8 entry H          line    40 file /home/gridsan/kfisher/.conda/envs/p4env/share/psi4/basis/aug-cc-pvtz.gbs 
    atoms 3, 6, 9       entry O          line   331 file /home/gridsan/kfisher/.conda/envs/p4env/share/psi4/basis/aug-cc-pvtz.gbs 


         ---------------------------------------------------------
                                   SCF
               by Justin Turney, Rob Parrish, Andy Simmonett
                          and Daniel G. A. Smith
                              RHF Reference
                        1 Threads,  19073 MiB Core
         ---------------------------------------------------------

  ==> Geometry <==

    Molecular point group: c1
    Full point group: C1

    Geometry (in Bohr), charge = 0, multiplicity = 1:

       Center              X                  Y                   Z               Mass       
    ------------   -----------------  -----------------  -----------------  -----------------
         H           -1.677933350296    -2.842119160982    -5.701029823602     1.007825032230
         H           -4.233833175022    -1.458685473289    -4.790487078592     1.007825032230
         O           -2.419644826312    -1.215250934910    -5.267399131703    15.994914619570
      Gh(H)          -1.203935689508     0.155233385610    -2.224915824529     1.007825032230
      Gh(H)          -0.176919977112     2.619796019267    -1.120782524344     1.007825032230
      Gh(O)           0.001987141507     0.789929897908    -1.018685818532    15.994914619570
      Gh(H)          -3.511886760292    -1.193116648392     4.123098493296     1.007825032230
      Gh(H)          -2.422847704225     0.203348874121     1.774617313567     1.007825032230
      Gh(O)          -3.916277266317    -0.705822534434     2.400038653199    15.994914619570

  Running in c1 symmetry.

  Rotational constants: A =      0.14835  B =      0.08691  C =      0.05725 [cm^-1]
  Rotational constants: A =   4447.28266  B =   2605.61218  C =   1716.44316 [MHz]
  Nuclear repulsion =    8.905959590449644

  Charge       = 0
  Multiplicity = 1
  Electrons    = 10
  Nalpha       = 5
  Nbeta        = 5

  ==> Algorithm <==

  SCF Algorithm Type is PK.
  DIIS enabled.
  MOM disabled.
  Fractional occupation disabled.
  Guess Type is SAD.
  Energy threshold   = 1.00e-10
  Density threshold  = 1.00e-10
  Integral threshold = 1.00e-12

  ==> Primary Basis <==

  Basis Set: AUG-CC-PVTZ
    Blend: AUG-CC-PVTZ
    Number of shells: 96
    Number of basis functions: 276
    Number of Cartesian functions: 315
    Spherical Harmonics?: true
    Max angular momentum: 3

  ==> Integral Setup <==

  Using in-core PK algorithm.
   Calculation information:
      Number of atoms:                   9
      Number of AO shells:              96
      Number of primitives:            156
      Number of atomic orbitals:       315
      Number of basis functions:       276

      Integral cutoff                 1.00e-12
      Number of threads:                 1

  Performing in-core PK
  Using 1461265302 doubles for integral storage.
  We computed 9632822 shell quartets total.
  Whereas there are 10841496 unique shell quartets.

  ==> DiskJK: Disk-Based J/K Matrices <==

    J tasked:                  Yes
    K tasked:                  Yes
    wK tasked:                  No
    Memory [MiB]:            14305
    Schwarz Cutoff:          1E-12

    OpenMP threads:              1

  Minimum eigenvalue in the overlap matrix is 1.5488633849E-04.
  Reciprocal condition number of the overlap matrix is 1.4290565749E-05.
    Using symmetric orthogonalization.

  ==> Pre-Iterations <==

  SCF Guess: Superposition of Atomic Densities via on-the-fly atomic UHF (no occupation information).

   -------------------------
    Irrep   Nso     Nmo    
   -------------------------
     A        276     276 
   -------------------------
    Total     276     276
   -------------------------

  ==> Iterations <==

                        Total Energy        Delta E     RMS |[F,P]|

   @RHF iter SAD:   -75.43809459253811   -7.54381e+01   0.00000e+00 
   @RHF iter   1:   -75.97095055018788   -5.32856e-01   1.69064e-03 DIIS/ADIIS
   @RHF iter   2:   -76.02242273587011   -5.14722e-02   1.18385e-03 DIIS/ADIIS
   @RHF iter   3:   -76.05573353262892   -3.33108e-02   8.09382e-05 DIIS
   @RHF iter   4:   -76.05617142796177   -4.37895e-04   2.06258e-05 DIIS
   @RHF iter   5:   -76.05620279974335   -3.13718e-05   4.80842e-06 DIIS
   @RHF iter   6:   -76.05620551673584   -2.71699e-06   1.08261e-06 DIIS
   @RHF iter   7:   -76.05620566718369   -1.50448e-07   2.01608e-07 DIIS
   @RHF iter   8:   -76.05620567172402   -4.54033e-09   3.48922e-08 DIIS
   @RHF iter   9:   -76.05620567183709   -1.13076e-10   9.24389e-09 DIIS
   @RHF iter  10:   -76.05620567184383   -6.73595e-12   1.26873e-09 DIIS
   @RHF iter  11:   -76.05620567184373    9.94760e-14   2.37862e-10 DIIS
   @RHF iter  12:   -76.05620567184400   -2.70006e-13   5.78346e-11 DIIS
  Energy and wave function converged.


  ==> Post-Iterations <==

    Orbital Energies [Eh]
    ---------------------

    Doubly Occupied:                                                      

       1A    -20.569821     2A     -1.335436     3A     -0.710267  
       4A     -0.569669     5A     -0.506417  

    Virtual:                                                              

       6A      0.022615     7A      0.038813     8A      0.047438  
       9A      0.050474    10A      0.073093    11A      0.077559  
      12A      0.115994    13A      0.131041    14A      0.134420  
      15A      0.147176    16A      0.154968    17A      0.164708  
      18A      0.179149    19A      0.181282    20A      0.196834  
      21A      0.207372    22A      0.214656    23A      0.231037  
      24A      0.251577    25A      0.256100    26A      0.279578  
      27A      0.296291    28A      0.304154    29A      0.316432  
      30A      0.325112    31A      0.333256    32A      0.361089  
      33A      0.367543    34A      0.374689    35A      0.379541  
      36A      0.388846    37A      0.408219    38A      0.418488  
      39A      0.428853    40A      0.437196    41A      0.447234  
      42A      0.453823    43A      0.469364    44A      0.491908  
      45A      0.501384    46A      0.543224    47A      0.570032  
      48A      0.637989    49A      0.642535    50A      0.662413  
      51A      0.686286    52A      0.717999    53A      0.736728  
      54A      0.747132    55A      0.757888    56A      0.788889  
      57A      0.794353    58A      0.804401    59A      0.817038  
      60A      0.823125    61A      0.830553    62A      0.840318  
      63A      0.849235    64A      0.866811    65A      0.875843  
      66A      0.878909    67A      0.894203    68A      0.899345  
      69A      0.919358    70A      0.926902    71A      0.940644  
      72A      0.946815    73A      0.966218    74A      0.974713  
      75A      0.982195    76A      0.984140    77A      1.013458  
      78A      1.019579    79A      1.027059    80A      1.048179  
      81A      1.057107    82A      1.065168    83A      1.073783  
      84A      1.106408    85A      1.122848    86A      1.138510  
      87A      1.151012    88A      1.160945    89A      1.178631  
      90A      1.195261    91A      1.216804    92A      1.227252  
      93A      1.254491    94A      1.257996    95A      1.277907  
      96A      1.307045    97A      1.316630    98A      1.355840  
      99A      1.376957   100A      1.417741   101A      1.470006  
     102A      1.486486   103A      1.513432   104A      1.517733  
     105A      1.558136   106A      1.569935   107A      1.603376  
     108A      1.635225   109A      1.659547   110A      1.712953  
     111A      1.729049   112A      1.742145   113A      1.754050  
     114A      1.789694   115A      1.800837   116A      1.810246  
     117A      1.839311   118A      1.859290   119A      1.872511  
     120A      1.892497   121A      1.917734   122A      1.974948  
     123A      1.995934   124A      2.073578   125A      2.109080  
     126A      2.131269   127A      2.210891   128A      2.240405  
     129A      2.345242   130A      2.421870   131A      2.428487  
     132A      2.440451   133A      2.468115   134A      2.507773  
     135A      2.521814   136A      2.550011   137A      2.552955  
     138A      2.562234   139A      2.588912   140A      2.611838  
     141A      2.634289   142A      2.638616   143A      2.657994  
     144A      2.707184   145A      2.722510   146A      2.731464  
     147A      2.757247   148A      2.763336   149A      2.777120  
     150A      2.851114   151A      2.882334   152A      2.908658  
     153A      2.929258   154A      2.971381   155A      2.999606  
     156A      3.040029   157A      3.082668   158A      3.108951  
     159A      3.197048   160A      3.214338   161A      3.228028  
     162A      3.279454   163A      3.358155   164A      3.413806  
     165A      3.423278   166A      3.483954   167A      3.515400  
     168A      3.570660   169A      3.586588   170A      3.698953  
     171A      3.785329   172A      3.836527   173A      3.878918  
     174A      3.937392   175A      4.056582   176A      4.237624  
     177A      4.266430   178A      4.298191   179A      4.394145  
     180A      4.420421   181A      4.455259   182A      4.468754  
     183A      4.503164   184A      4.507608   185A      4.549048  
     186A      4.568299   187A      4.611287   188A      4.633765  
     189A      4.647297   190A      4.685069   191A      4.717078  
     192A      4.728120   193A      4.730772   194A      4.746385  
     195A      4.809422   196A      4.900268   197A      4.906966  
     198A      4.942755   199A      4.967197   200A      5.041068  
     201A      5.064698   202A      5.118719   203A      5.143925  
     204A      5.211842   205A      5.255882   206A      5.284507  
     207A      5.327045   208A      5.351954   209A      5.383248  
     210A      5.456068   211A      5.487635   212A      5.542037  
     213A      5.619498   214A      5.664106   215A      5.747547  
     216A      5.766299   217A      5.821280   218A      5.886016  
     219A      6.014879   220A      6.151724   221A      6.229017  
     222A      6.340949   223A      6.448459   224A      6.526728  
     225A      6.602204   226A      6.641182   227A      6.716182  
     228A      6.829060   229A      6.929399   230A      7.021698  
     231A      7.127153   232A      7.208813   233A      7.285586  
     234A      7.345203   235A      7.373994   236A      7.386213  
     237A      7.433074   238A      7.639967   239A      7.722969  
     240A      7.789888   241A      7.820668   242A      7.877535  
     243A      7.937285   244A      7.977757   245A      8.063115  
     246A      8.163100   247A      8.238018   248A      8.262061  
     249A      8.292968   250A      8.473741   251A      8.727507  
     252A      8.771644   253A      8.842524   254A      8.875887  
     255A      9.062922   256A      9.654780   257A      9.859673  
     258A      9.915322   259A     10.038367   260A     10.068677  
     261A     10.175492   262A     10.292075   263A     10.351302  
     264A     11.133254   265A     11.253083   266A     11.691528  
     267A     12.016460   268A     12.023073   269A     12.335812  
     270A     13.512538   271A     13.697892   272A     13.946220  
     273A     14.072742   274A     15.679939   275A     64.859012  
     276A     67.169156  

    Final Occupation by Irrep:
              A 
    DOCC [     5 ]
    NA   [     5 ]
    NB   [     5 ]

  @RHF Final Energy:   -76.05620567184400

   => Energetics <=

    Nuclear Repulsion Energy =              8.9059595904496440
    One-Electron Energy =                -122.5411116253743558
    Two-Electron Energy =                  37.5789463630807177
    Total Energy =                        -76.0562056718439976

Computation Completed


Properties will be evaluated at   0.000000,   0.000000,   0.000000 [a0]

Properties computed using the SCF density matrix


 Multipole Moments:

 ------------------------------------------------------------------------------------
     Multipole            Electronic (a.u.)      Nuclear  (a.u.)        Total (a.u.)
 ------------------------------------------------------------------------------------

 L = 1.  Multiply by 2.5417464519 to convert [e a0] to [Debye]
 Dipole X            :         24.8965353          -25.2689251           -0.3723899
 Dipole Y            :         13.3658161          -14.0228121           -0.6569961
 Dipole Z            :         52.6445936          -52.6307100            0.0138836
 Magnitude           :                                                    0.7553217

 ------------------------------------------------------------------------------------

*** tstop() called on d-19-15-2 at Tue Sep 19 00:18:13 2023
Module time:
	user time   =      79.86 seconds =       1.33 minutes
	system time =       2.48 seconds =       0.04 minutes
	total time  =         90 seconds =       1.50 minutes
Total time:
	user time   =   75353.93 seconds =    1255.90 minutes
	system time =   38182.27 seconds =     636.37 minutes
	total time  =     127789 seconds =    2129.82 minutes
 MINTS: Wrapper to libmints.
   by Justin Turney

   Calculation information:
      Number of threads:                 1
      Number of atoms:                   9
      Number of AO shells:              96
      Number of SO shells:              96
      Number of primitives:            156
      Number of atomic orbitals:       315
      Number of basis functions:       276

      Number of irreps:                  1
      Integral cutoff                 1.00e-12
      Number of functions per irrep: [ 276 ]

 OEINTS: Overlap, kinetic, potential, dipole, and quadrupole integrals
         stored in file 35.

      Computing two-electron integrals...done
      Computed 595610874 non-zero two-electron integrals.
        Stored in file 33.


*** tstart() called on d-19-15-2
*** at Tue Sep 19 00:19:29 2023


	Wfn Parameters:
	--------------------
	Wavefunction         = CCSD_T
	Number of irreps     = 1
	Number of MOs        = 276
	Number of active MOs = 276
	AO-Basis             = NONE
	Semicanonical        = false
	Reference            = RHF
	Print Level          = 1

	IRREP	# MOs	# FZDC	# DOCC	# SOCC	# VIRT	# FZVR
	-----	-----	------	------	------	------	------
	 A	   276	    0	    5	    0	    271	    0
	Transforming integrals...
	IWL integrals will be deleted.
	(OO|OO)...
	Presorting SO-basis two-electron integrals.
	Sorting File: SO Ints (nn|nn) nbuckets = 1
	Constructing frozen core operators
	Starting first half-transformation.
	Sorting half-transformed integrals.
	First half integral transformation complete.
	Starting second half-transformation.
	Two-electron integral transformation complete.
	(OO|OV)...
	Starting second half-transformation.
	Two-electron integral transformation complete.
	(OO|VV)...
	Starting second half-transformation.
	Two-electron integral transformation complete.
	(OV|OO)...
	Starting first half-transformation.
	Sorting half-transformed integrals.
	First half integral transformation complete.
	Starting second half-transformation.
	Two-electron integral transformation complete.
	(OV|OV)...
	Starting second half-transformation.
	Two-electron integral transformation complete.
	(OV|VV)...
	Starting second half-transformation.
	Two-electron integral transformation complete.
	(VV|OO)...
	Starting first half-transformation.
	Sorting half-transformed integrals.
	First half integral transformation complete.
	Starting second half-transformation.
	Two-electron integral transformation complete.
	(VV|OV)...
	Starting second half-transformation.
	Two-electron integral transformation complete.
	(VV|VV)...
	Starting second half-transformation.
	Two-electron integral transformation complete.
	Frozen core energy     =      0.00000000000000

	Size of irrep 0 of <ab|cd> integrals:   5393.580 (MW) /  43148.644 (MB)
	Total:                                  5393.580 (MW) /  43148.644 (MB)

	Size of irrep 0 of <ia|bc> integrals:     99.513 (MW) /    796.100 (MB)
	Total:                                    99.513 (MW) /    796.100 (MB)

	Size of irrep 0 of tijab amplitudes:       1.836 (MW) /     14.688 (MB)
	Total:                                     1.836 (MW) /     14.688 (MB)

	Nuclear Rep. energy          =      8.90595959044964
	SCF energy                   =    -76.05620567184400
	One-electron energy          =   -122.54111163003407
	Two-electron energy          =     37.57894636774044
	Reference energy             =    -76.05620567184400

*** tstop() called on d-19-15-2 at Tue Sep 19 00:35:26 2023
Module time:
	user time   =     514.14 seconds =       8.57 minutes
	system time =     292.42 seconds =       4.87 minutes
	total time  =        957 seconds =      15.95 minutes
Total time:
	user time   =   75911.49 seconds =    1265.19 minutes
	system time =   38490.41 seconds =     641.51 minutes
	total time  =     128822 seconds =    2147.03 minutes
            **************************
            *                        *
            *        CCENERGY        *
            *                        *
            **************************

    Nuclear Rep. energy (wfn)     =    8.905959590449644
    SCF energy          (wfn)     =  -76.056205671843998
    Reference energy    (file100) =  -76.056205671843998

    Input parameters:
    -----------------
    Wave function   =     CCSD_T
    Reference wfn   =     RHF
    Brueckner       =     No
    Memory (Mbytes) =     20000.0
    Maxiter         =     50
    R_Convergence   =     1.0e-07
    E_Convergence   =     1.0e-10
    Restart         =     Yes
    DIIS            =     Yes
    AO Basis        =     NONE
    ABCD            =     NEW
    Cache Level     =     2
    Cache Type      =     LOW
    Print Level     =     1
    Num. of threads =     1
    # Amps to Print =     10
    Print MP2 Amps? =     No
    Analyze T2 Amps =     No
    Print Pair Ener =     No
    Local CC        =     No
    SCS-MP2         =     False
    SCSN-MP2        =     False
    SCS-CCSD        =     False

MP2 correlation energy -0.2861681740099712
                Solving CC Amplitude Equations
                ------------------------------
  Iter             Energy              RMS        T1Diag      D1Diag    New D1Diag    D2Diag
  ----     ---------------------    ---------   ----------  ----------  ----------   --------
     0        -0.286168174009971    0.000e+00    0.000000    0.000000    0.000000    0.120803
     1        -0.283926492493014    3.677e-02    0.007865    0.017710    0.017710    0.123211
     2        -0.289194309841634    1.319e-02    0.007685    0.017429    0.017429    0.128114
     3        -0.290635774431356    5.199e-03    0.008935    0.020811    0.020811    0.130517
     4        -0.290501130371531    1.148e-03    0.009098    0.021283    0.021283    0.130754
     5        -0.290512161685568    4.389e-04    0.009189    0.021593    0.021593    0.130829
     6        -0.290520876836939    1.191e-04    0.009213    0.021683    0.021683    0.130831
     7        -0.290519114709959    4.407e-05    0.009219    0.021706    0.021706    0.130823
     8        -0.290518355814562    1.391e-05    0.009221    0.021712    0.021712    0.130821
     9        -0.290518523063425    5.443e-06    0.009221    0.021714    0.021714    0.130821
    10        -0.290518285187077    2.137e-06    0.009221    0.021715    0.021715    0.130821
    11        -0.290518281138173    7.685e-07    0.009221    0.021714    0.021714    0.130821
    12        -0.290518270016697    3.377e-07    0.009221    0.021714    0.021714    0.130821
    13        -0.290518264547481    1.172e-07    0.009221    0.021714    0.021714    0.130821
    14        -0.290518264117432    4.171e-08    0.009221    0.021714    0.021714    0.130821
    15        -0.290518264244773    1.482e-08    0.009221    0.021714    0.021714    0.130821
    16        -0.290518264154763    5.617e-09    0.009221    0.021714    0.021714    0.130821
    17        -0.290518264130942    2.004e-09    0.009221    0.021714    0.021714    0.130821

    Iterations converged.


    Largest TIA Amplitudes:
              4   4         0.0066750121
              4   7        -0.0063924464
              4  14        -0.0061813012
              4  12        -0.0060694338
              4  31         0.0057411093
              4  21        -0.0046767796
              4  11        -0.0045630526
              4  18        -0.0043118107
              3  32         0.0042673382
              3   7        -0.0042489013

    Largest TIjAb Amplitudes:
      2   2  37  37        -0.0168965573
      2   2  44  44        -0.0102664696
      2   2  12  37         0.0093026475
      2   2  37  12         0.0093026475
      2   2  37  76        -0.0080708545
      2   2  76  37        -0.0080708545
      2   2  19  37        -0.0072806378
      2   2  37  19        -0.0072806378
      1   2  33  37        -0.0072312289
      2   1  37  33        -0.0072312289

    SCF energy       (wfn)                    =  -76.056205671843998
    Reference energy (file100)                =  -76.056205671843998

    Opposite-spin MP2 correlation energy      =   -0.217319642427414
    Same-spin MP2 correlation energy          =   -0.068848531582557
    Singles MP2 correlation energy            =   -0.000000000000000
    MP2 correlation energy                    =   -0.286168174009971
      * MP2 total energy                      =  -76.342373845853970

    Opposite-spin CCSD correlation energy     =   -0.229412788797612
    Same-spin CCSD correlation energy         =   -0.061105475333330
    Singles CCSD correlation energy           =    0.000000000000000
    CCSD correlation energy                   =   -0.290518264130942
      * CCSD total energy                     =  -76.346723935974936

            **************************
            *                        *
            *        CCTRIPLES       *
            *                        *
            **************************


    Wave function   =    CCSD_T
    Reference wfn   =      RHF

    Nuclear Rep. energy (wfn)                =    8.905959590449644
    SCF energy          (wfn)                =  -76.056205671843998
    Reference energy    (file100)            =  -76.056205671843998
    CCSD energy         (file100)            =   -0.290518264130942
    Total CCSD energy   (file100)            =  -76.346723935974936

    Number of ijk index combinations:               35
    Memory available in words               :      2500000000
    Approx. words needed per explicit thread:        79610044
    Number of threads for explicit ijk threading:    1

    MKL num_threads set to 1 for explicit threading.

    (T) energy                                =   -0.009082648020356
      * CCSD(T) total energy                  =  -76.355806583995289


    Psi4 stopped on: Tuesday, 19 September 2023 12:43AM
    Psi4 wall time for execution: 0:27:00.04


    -----------------------------------------------------------------------
          Psi4: An Open-Source Ab Initio Electronic Structure Package
                               Psi4 1.7 release

                         Git: Rev {HEAD} 6ce35a5 


    D. G. A. Smith, L. A. Burns, A. C. Simmonett, R. M. Parrish,
    M. C. Schieber, R. Galvelis, P. Kraus, H. Kruse, R. Di Remigio,
    A. Alenaizan, A. M. James, S. Lehtola, J. P. Misiewicz, M. Scheurer,
    R. A. Shaw, J. B. Schriber, Y. Xie, Z. L. Glick, D. A. Sirianni,
    J. S. O'Brien, J. M. Waldrop, A. Kumar, E. G. Hohenstein,
    B. P. Pritchard, B. R. Brooks, H. F. Schaefer III, A. Yu. Sokolov,
    K. Patkowski, A. E. DePrince III, U. Bozkaya, R. A. King,
    F. A. Evangelista, J. M. Turney, T. D. Crawford, C. D. Sherrill,
    J. Chem. Phys. 152(18) 184108 (2020). https://doi.org/10.1063/5.0006002

                            Additional Code Authors
    E. T. Seidl, C. L. Janssen, E. F. Valeev, M. L. Leininger,
    J. F. Gonthier, R. M. Richard, H. R. McAlexander, M. Saitow, X. Wang,
    P. Verma, M. H. Lechner, A. Jiang, S. Behnle, A. G. Heide,
    M. F. Herbst, and D. L. Poole

             Previous Authors, Complete List of Code Contributors,
                       and Citations for Specific Modules
    https://github.com/psi4/psi4/blob/master/codemeta.json
    https://github.com/psi4/psi4/graphs/contributors
    http://psicode.org/psi4manual/master/introduction.html#citing-psifour

    -----------------------------------------------------------------------


    Psi4 started on: Sunday, 17 September 2023 12:48PM

    Process ID: 258105
    Host:       d-19-15-2
    PSIDATADIR: /home/gridsan/kfisher/.conda/envs/p4env/share/psi4
    Memory:     18.6 GiB
    Threads:    1
    
  ==> Input QCSchema <==

--------------------------------------------------------------------------
{'driver': 'energy',
 'extras': {'psiapi': True, 'wfn_qcvars_only': True},
 'id': None,
 'keywords': {'D_CONVERGENCE': 1e-10, 'E_CONVERGENCE': 1e-10, 'function_kwargs': {}},
 'model': {'basis': 'aug-cc-pvtz', 'method': 'ccsd(t)'},
 'molecule': {'atom_labels': ['', '', '', '', '', '', '', '', ''],
              'atomic_numbers': [1, 1, 8, 1, 1, 8, 1, 1, 8],
              'fix_com': True,
              'fix_orientation': True,
              'fix_symmetry': 'c1',
              'fragment_charges': [0.0, 0.0, 0.0],
              'fragment_multiplicities': [1, 1, 1],
              'fragments': [[0, 1, 2], [3, 4, 5], [6, 7, 8]],
              'geometry': [-1.677933350296368, -2.842119160981593, -5.701029823601644, -4.233833175021524,
                           -1.4586854732891477, -4.790487078592016, -2.419644826312225, -1.215250934910409,
                           -5.267399131702672, -1.2039356895081763, 0.155233385610075, -2.224915824529379,
                           -0.1769199771121353, 2.6197960192668477, -1.1207825243439258, 0.0019871415072251794,
                           0.7899298979083906, -1.0186858185322842, -3.5118867602915778, -1.1931166483919666,
                           4.123098493295892, -2.4228477042250023, 0.20334887412055455, 1.7746173135668604,
                           -3.91627726631707, -0.7058225344343512, 2.4000386531989424],
              'mass_numbers': [1, 1, 16, 1, 1, 16, 1, 1, 16],
              'masses': [1.00782503223, 1.00782503223, 15.99491461957, 1.00782503223, 1.00782503223, 15.99491461957,
                         1.00782503223, 1.00782503223, 15.99491461957],
              'molecular_charge': 0.0,
              'molecular_multiplicity': 1,
              'name': 'H6O3',
              'provenance': {'creator': 'QCElemental',
                             'routine': 'qcelemental.molparse.from_string',
                             'version': 'v0.25.1'},
              'real': [False, False, False, True, True, True, False, False, False],
              'schema_name': 'qcschema_molecule',
              'schema_version': 2,
              'symbols': ['H', 'H', 'O', 'H', 'H', 'O', 'H', 'H', 'O'],
              'validated': True},
 'protocols': {'stdout': True},
 'provenance': {'creator': 'QCElemental', 'routine': 'qcelemental.models.results', 'version': 'v0.25.1'},
 'schema_name': 'qcschema_input',
 'schema_version': 1}
--------------------------------------------------------------------------

Scratch directory: /home/gridsan/kfisher/scratch/

*** tstart() called on d-19-15-2
*** at Tue Sep 19 00:43:43 2023

   => Loading Basis Set <=

    Name: AUG-CC-PVTZ
    Role: ORBITAL
    Keyword: BASIS
    atoms 1-2, 4-5, 7-8 entry H          line    40 file /home/gridsan/kfisher/.conda/envs/p4env/share/psi4/basis/aug-cc-pvtz.gbs 
    atoms 3, 6, 9       entry O          line   331 file /home/gridsan/kfisher/.conda/envs/p4env/share/psi4/basis/aug-cc-pvtz.gbs 


         ---------------------------------------------------------
                                   SCF
               by Justin Turney, Rob Parrish, Andy Simmonett
                          and Daniel G. A. Smith
                              RHF Reference
                        1 Threads,  19073 MiB Core
         ---------------------------------------------------------

  ==> Geometry <==

    Molecular point group: c1
    Full point group: C1

    Geometry (in Bohr), charge = 0, multiplicity = 1:

       Center              X                  Y                   Z               Mass       
    ------------   -----------------  -----------------  -----------------  -----------------
      Gh(H)          -1.677933350296    -2.842119160982    -5.701029823602     1.007825032230
      Gh(H)          -4.233833175022    -1.458685473289    -4.790487078592     1.007825032230
      Gh(O)          -2.419644826312    -1.215250934910    -5.267399131703    15.994914619570
         H           -1.203935689508     0.155233385610    -2.224915824529     1.007825032230
         H           -0.176919977112     2.619796019267    -1.120782524344     1.007825032230
         O            0.001987141507     0.789929897908    -1.018685818532    15.994914619570
      Gh(H)          -3.511886760292    -1.193116648392     4.123098493296     1.007825032230
      Gh(H)          -2.422847704225     0.203348874121     1.774617313567     1.007825032230
      Gh(O)          -3.916277266317    -0.705822534434     2.400038653199    15.994914619570

  Running in c1 symmetry.

  Rotational constants: A =      0.14835  B =      0.08691  C =      0.05725 [cm^-1]
  Rotational constants: A =   4447.28266  B =   2605.61218  C =   1716.44316 [MHz]
  Nuclear repulsion =    9.086387827632095

  Charge       = 0
  Multiplicity = 1
  Electrons    = 10
  Nalpha       = 5
  Nbeta        = 5

  ==> Algorithm <==

  SCF Algorithm Type is PK.
  DIIS enabled.
  MOM disabled.
  Fractional occupation disabled.
  Guess Type is SAD.
  Energy threshold   = 1.00e-10
  Density threshold  = 1.00e-10
  Integral threshold = 1.00e-12

  ==> Primary Basis <==

  Basis Set: AUG-CC-PVTZ
    Blend: AUG-CC-PVTZ
    Number of shells: 96
    Number of basis functions: 276
    Number of Cartesian functions: 315
    Spherical Harmonics?: true
    Max angular momentum: 3

  ==> Integral Setup <==

  Using in-core PK algorithm.
   Calculation information:
      Number of atoms:                   9
      Number of AO shells:              96
      Number of primitives:            156
      Number of atomic orbitals:       315
      Number of basis functions:       276

      Integral cutoff                 1.00e-12
      Number of threads:                 1

  Performing in-core PK
  Using 1461265302 doubles for integral storage.
  We computed 9632822 shell quartets total.
  Whereas there are 10841496 unique shell quartets.

  ==> DiskJK: Disk-Based J/K Matrices <==

    J tasked:                  Yes
    K tasked:                  Yes
    wK tasked:                  No
    Memory [MiB]:            14305
    Schwarz Cutoff:          1E-12

    OpenMP threads:              1

  Minimum eigenvalue in the overlap matrix is 1.5488633849E-04.
  Reciprocal condition number of the overlap matrix is 1.4290565749E-05.
    Using symmetric orthogonalization.

  ==> Pre-Iterations <==

  SCF Guess: Superposition of Atomic Densities via on-the-fly atomic UHF (no occupation information).

   -------------------------
    Irrep   Nso     Nmo    
   -------------------------
     A        276     276 
   -------------------------
    Total     276     276
   -------------------------

  ==> Iterations <==

                        Total Energy        Delta E     RMS |[F,P]|

   @RHF iter SAD:   -75.46501615103195   -7.54650e+01   0.00000e+00 
   @RHF iter   1:   -75.97485978886240   -5.09844e-01   1.69472e-03 DIIS/ADIIS
   @RHF iter   2:   -76.02706836393854   -5.22086e-02   1.16759e-03 DIIS/ADIIS
   @RHF iter   3:   -76.05922393161094   -3.21556e-02   7.95534e-05 DIIS
   @RHF iter   4:   -76.05962713147059   -4.03200e-04   1.93965e-05 DIIS
   @RHF iter   5:   -76.05965355152738   -2.64201e-05   4.45759e-06 DIIS
   @RHF iter   6:   -76.05965575215826   -2.20063e-06   9.78751e-07 DIIS
   @RHF iter   7:   -76.05965586827190   -1.16114e-07   1.75059e-07 DIIS
   @RHF iter   8:   -76.05965587151360   -3.24169e-09   2.95677e-08 DIIS
   @RHF iter   9:   -76.05965587158732   -7.37259e-11   7.41603e-09 DIIS
   @RHF iter  10:   -76.05965587159180   -4.47642e-12   1.09013e-09 DIIS
   @RHF iter  11:   -76.05965587159181   -1.42109e-14   1.74872e-10 DIIS
   @RHF iter  12:   -76.05965587159196   -1.42109e-13   3.60621e-11 DIIS
  Energy and wave function converged.


  ==> Post-Iterations <==

    Orbital Energies [Eh]
    ---------------------

    Doubly Occupied:                                                      

       1A    -20.569180     2A     -1.347857     3A     -0.710891  
       4A     -0.583224     5A     -0.509488  

    Virtual:                                                              

       6A      0.020222     7A      0.040777     8A      0.044400  
       9A      0.050616    10A      0.071546    11A      0.076000  
      12A      0.114047    13A      0.122566    14A      0.128956  
      15A      0.147513    16A      0.152431    17A      0.163707  
      18A      0.168291    19A      0.177510    20A      0.193749  
      21A      0.205794    22A      0.230374    23A      0.233481  
      24A      0.257819    25A      0.266603    26A      0.279865  
      27A      0.289393    28A      0.294022    29A      0.316153  
      30A      0.322354    31A      0.332108    32A      0.349918  
      33A      0.360464    34A      0.370934    35A      0.376725  
      36A      0.387833    37A      0.396442    38A      0.402396  
      39A      0.415401    40A      0.421530    41A      0.431508  
      42A      0.440545    43A      0.467207    44A      0.487172  
      45A      0.504324    46A      0.573636    47A      0.594109  
      48A      0.627625    49A      0.647797    50A      0.674743  
      51A      0.682828    52A      0.703102    53A      0.725865  
      54A      0.746406    55A      0.757727    56A      0.761646  
      57A      0.769409    58A      0.790109    59A      0.804967  
      60A      0.813229    61A      0.822855    62A      0.834989  
      63A      0.852883    64A      0.858428    65A      0.874607  
      66A      0.885924    67A      0.889778    68A      0.902833  
      69A      0.915259    70A      0.928326    71A      0.935774  
      72A      0.949368    73A      0.963331    74A      0.974063  
      75A      0.984899    76A      0.991432    77A      0.997493  
      78A      1.013393    79A      1.021218    80A      1.033764  
      81A      1.052030    82A      1.068358    83A      1.076521  
      84A      1.102253    85A      1.124287    86A      1.146020  
      87A      1.155357    88A      1.165437    89A      1.171912  
      90A      1.189531    91A      1.204491    92A      1.214948  
      93A      1.238056    94A      1.261036    95A      1.273508  
      96A      1.285895    97A      1.315826    98A      1.326042  
      99A      1.378255   100A      1.392782   101A      1.426920  
     102A      1.454431   103A      1.491976   104A      1.507097  
     105A      1.535568   106A      1.589858   107A      1.592487  
     108A      1.614415   109A      1.670696   110A      1.678224  
     111A      1.683931   112A      1.733821   113A      1.759103  
     114A      1.779745   115A      1.781757   116A      1.806173  
     117A      1.821366   118A      1.848665   119A      1.862239  
     120A      1.888283   121A      1.899839   122A      1.933873  
     123A      1.988931   124A      2.032499   125A      2.053004  
     126A      2.206056   127A      2.243389   128A      2.352022  
     129A      2.400914   130A      2.424282   131A      2.447354  
     132A      2.479265   133A      2.483624   134A      2.503971  
     135A      2.514174   136A      2.533159   137A      2.556051  
     138A      2.565360   139A      2.587522   140A      2.607570  
     141A      2.619431   142A      2.622611   143A      2.648708  
     144A      2.665480   145A      2.682450   146A      2.713518  
     147A      2.734104   148A      2.773905   149A      2.788060  
     150A      2.819675   151A      2.873728   152A      2.900837  
     153A      2.954277   154A      2.972505   155A      2.995001  
     156A      3.017035   157A      3.067988   158A      3.107557  
     159A      3.166158   160A      3.196422   161A      3.213998  
     162A      3.224988   163A      3.262492   164A      3.307972  
     165A      3.350419   166A      3.418726   167A      3.459430  
     168A      3.488493   169A      3.573014   170A      3.604729  
     171A      3.695355   172A      3.809517   173A      3.912550  
     174A      4.085247   175A      4.161286   176A      4.278493  
     177A      4.293568   178A      4.314984   179A      4.348634  
     180A      4.388949   181A      4.471816   182A      4.478831  
     183A      4.489700   184A      4.493078   185A      4.543504  
     186A      4.560158   187A      4.568553   188A      4.606879  
     189A      4.621693   190A      4.652160   191A      4.673794  
     192A      4.704690   193A      4.722002   194A      4.746954  
     195A      4.835397   196A      4.918505   197A      4.960949  
     198A      4.981892   199A      4.997965   200A      5.026564  
     201A      5.066922   202A      5.125007   203A      5.161129  
     204A      5.214257   205A      5.227833   206A      5.256545  
     207A      5.329091   208A      5.386535   209A      5.426148  
     210A      5.444191   211A      5.465813   212A      5.572680  
     213A      5.601928   214A      5.628601   215A      5.700081  
     216A      5.747145   217A      5.783366   218A      5.806249  
     219A      5.910699   220A      6.158873   221A      6.249238  
     222A      6.304386   223A      6.357959   224A      6.465999  
     225A      6.582933   226A      6.644382   227A      6.663014  
     228A      6.850148   229A      6.950956   230A      7.024380  
     231A      7.028416   232A      7.285464   233A      7.329357  
     234A      7.341590   235A      7.388041   236A      7.487738  
     237A      7.541799   238A      7.722957   239A      7.742471  
     240A      7.781886   241A      7.815504   242A      7.881662  
     243A      7.983612   244A      8.013993   245A      8.088567  
     246A      8.138085   247A      8.189998   248A      8.198166  
     249A      8.263980   250A      8.301797   251A      8.648374  
     252A      8.659845   253A      8.784255   254A      8.842084  
     255A      8.939139   256A      9.669126   257A      9.815600  
     258A      9.871594   259A      9.975421   260A     10.042938  
     261A     10.081219   262A     10.257386   263A     10.300811  
     264A     10.988031   265A     11.152562   266A     11.700562  
     267A     11.825084   268A     12.018497   269A     12.074229  
     270A     13.332619   271A     13.522336   272A     13.907012  
     273A     13.958187   274A     16.902181   275A     64.393721  
     276A     64.969762  

    Final Occupation by Irrep:
              A 
    DOCC [     5 ]
    NA   [     5 ]
    NB   [     5 ]

  @RHF Final Energy:   -76.05965587159196

   => Energetics <=

    Nuclear Repulsion Energy =              9.0863878276320946
    One-Electron Energy =                -122.8508078536180221
    Two-Electron Energy =                  37.7047641543939704
    Total Energy =                        -76.0596558715919571

Computation Completed


Properties will be evaluated at   0.000000,   0.000000,   0.000000 [a0]

Properties computed using the SCF density matrix


 Multipole Moments:

 ------------------------------------------------------------------------------------
     Multipole            Electronic (a.u.)      Nuclear  (a.u.)        Total (a.u.)
 ------------------------------------------------------------------------------------

 L = 1.  Multiply by 2.5417464519 to convert [e a0] to [Debye]
 Dipole X            :          0.8808661           -1.3649585           -0.4840924
 Dipole Y            :         -8.6790688            9.0944686            0.4153998
 Dipole Z            :         11.0376551          -11.4951849           -0.4575297
 Magnitude           :                                                    0.7850070

 ------------------------------------------------------------------------------------

*** tstop() called on d-19-15-2 at Tue Sep 19 00:45:18 2023
Module time:
	user time   =      81.29 seconds =       1.35 minutes
	system time =       3.43 seconds =       0.06 minutes
	total time  =         95 seconds =       1.58 minutes
Total time:
	user time   =   76250.84 seconds =    1270.85 minutes
	system time =   38719.18 seconds =     645.32 minutes
	total time  =     129414 seconds =    2156.90 minutes
 MINTS: Wrapper to libmints.
   by Justin Turney

   Calculation information:
      Number of threads:                 1
      Number of atoms:                   9
      Number of AO shells:              96
      Number of SO shells:              96
      Number of primitives:            156
      Number of atomic orbitals:       315
      Number of basis functions:       276

      Number of irreps:                  1
      Integral cutoff                 1.00e-12
      Number of functions per irrep: [ 276 ]

 OEINTS: Overlap, kinetic, potential, dipole, and quadrupole integrals
         stored in file 35.

      Computing two-electron integrals...done
      Computed 595610874 non-zero two-electron integrals.
        Stored in file 33.


*** tstart() called on d-19-15-2
*** at Tue Sep 19 00:46:16 2023


	Wfn Parameters:
	--------------------
	Wavefunction         = CCSD_T
	Number of irreps     = 1
	Number of MOs        = 276
	Number of active MOs = 276
	AO-Basis             = NONE
	Semicanonical        = false
	Reference            = RHF
	Print Level          = 1

	IRREP	# MOs	# FZDC	# DOCC	# SOCC	# VIRT	# FZVR
	-----	-----	------	------	------	------	------
	 A	   276	    0	    5	    0	    271	    0
	Transforming integrals...
	IWL integrals will be deleted.
	(OO|OO)...
	Presorting SO-basis two-electron integrals.
	Sorting File: SO Ints (nn|nn) nbuckets = 1
	Constructing frozen core operators
	Starting first half-transformation.
	Sorting half-transformed integrals.
	First half integral transformation complete.
	Starting second half-transformation.
	Two-electron integral transformation complete.
	(OO|OV)...
	Starting second half-transformation.
	Two-electron integral transformation complete.
	(OO|VV)...
	Starting second half-transformation.
	Two-electron integral transformation complete.
	(OV|OO)...
	Starting first half-transformation.
	Sorting half-transformed integrals.
	First half integral transformation complete.
	Starting second half-transformation.
	Two-electron integral transformation complete.
	(OV|OV)...
	Starting second half-transformation.
	Two-electron integral transformation complete.
	(OV|VV)...
	Starting second half-transformation.
	Two-electron integral transformation complete.
	(VV|OO)...
	Starting first half-transformation.
	Sorting half-transformed integrals.
	First half integral transformation complete.
	Starting second half-transformation.
	Two-electron integral transformation complete.
	(VV|OV)...
	Starting second half-transformation.
	Two-electron integral transformation complete.
	(VV|VV)...
	Starting second half-transformation.
	Two-electron integral transformation complete.
	Frozen core energy     =      0.00000000000000

	Size of irrep 0 of <ab|cd> integrals:   5393.580 (MW) /  43148.644 (MB)
	Total:                                  5393.580 (MW) /  43148.644 (MB)

	Size of irrep 0 of <ia|bc> integrals:     99.513 (MW) /    796.100 (MB)
	Total:                                    99.513 (MW) /    796.100 (MB)

	Size of irrep 0 of tijab amplitudes:       1.836 (MW) /     14.688 (MB)
	Total:                                     1.836 (MW) /     14.688 (MB)

	Nuclear Rep. energy          =      9.08638782763209
	SCF energy                   =    -76.05965587159196
	One-electron energy          =   -122.85080786094215
	Two-electron energy          =     37.70476416171803
	Reference energy             =    -76.05965587159203

*** tstop() called on d-19-15-2 at Tue Sep 19 01:02:04 2023
Module time:
	user time   =     510.81 seconds =       8.51 minutes
	system time =     295.27 seconds =       4.92 minutes
	total time  =        948 seconds =      15.80 minutes
Total time:
	user time   =   76804.69 seconds =    1280.08 minutes
	system time =   39029.62 seconds =     650.49 minutes
	total time  =     130420 seconds =    2173.67 minutes
            **************************
            *                        *
            *        CCENERGY        *
            *                        *
            **************************

    Nuclear Rep. energy (wfn)     =    9.086387827632095
    SCF energy          (wfn)     =  -76.059655871591957
    Reference energy    (file100) =  -76.059655871592028

    Input parameters:
    -----------------
    Wave function   =     CCSD_T
    Reference wfn   =     RHF
    Brueckner       =     No
    Memory (Mbytes) =     20000.0
    Maxiter         =     50
    R_Convergence   =     1.0e-07
    E_Convergence   =     1.0e-10
    Restart         =     Yes
    DIIS            =     Yes
    AO Basis        =     NONE
    ABCD            =     NEW
    Cache Level     =     2
    Cache Type      =     LOW
    Print Level     =     1
    Num. of threads =     1
    # Amps to Print =     10
    Print MP2 Amps? =     No
    Analyze T2 Amps =     No
    Print Pair Ener =     No
    Local CC        =     No
    SCS-MP2         =     False
    SCSN-MP2        =     False
    SCS-CCSD        =     False

MP2 correlation energy -0.2857064342465663
                Solving CC Amplitude Equations
                ------------------------------
  Iter             Energy              RMS        T1Diag      D1Diag    New D1Diag    D2Diag
  ----     ---------------------    ---------   ----------  ----------  ----------   --------
     0        -0.285706434246566    0.000e+00    0.000000    0.000000    0.000000    0.118912
     1        -0.283839807445535    3.585e-02    0.007670    0.017287    0.017287    0.121325
     2        -0.288948896854456    1.271e-02    0.007510    0.017064    0.017064    0.125910
     3        -0.290320965560922    4.980e-03    0.008708    0.020328    0.020328    0.128114
     4        -0.290193965430418    1.105e-03    0.008868    0.020799    0.020799    0.128314
     5        -0.290201671915221    4.201e-04    0.008953    0.021098    0.021098    0.128373
     6        -0.290210155921375    1.176e-04    0.008978    0.021189    0.021189    0.128373
     7        -0.290208683816013    4.225e-05    0.008984    0.021215    0.021215    0.128364
     8        -0.290207875994074    1.287e-05    0.008985    0.021222    0.021222    0.128362
     9        -0.290207972885327    4.555e-06    0.008986    0.021224    0.021224    0.128362
    10        -0.290207779540972    1.591e-06    0.008986    0.021225    0.021225    0.128362
    11        -0.290207760765901    5.336e-07    0.008986    0.021225    0.021225    0.128362
    12        -0.290207750785794    2.221e-07    0.008986    0.021225    0.021225    0.128362
    13        -0.290207746020169    8.029e-08    0.008986    0.021225    0.021225    0.128362
    14        -0.290207745807934    2.918e-08    0.008986    0.021225    0.021225    0.128362
    15        -0.290207746096144    1.034e-08    0.008986    0.021225    0.021225    0.128362
    16        -0.290207746084152    3.645e-09    0.008986    0.021225    0.021225    0.128362
    17        -0.290207746083454    1.353e-09    0.008986    0.021225    0.021225    0.128362

    Iterations converged.


    Largest TIA Amplitudes:
              4  15         0.0079555731
              4  17         0.0067313895
              4  31        -0.0048307659
              3  10         0.0047925611
              3  30        -0.0047453560
              4  40        -0.0046644833
              4   9        -0.0046601440
              4   4        -0.0045693933
              4   5        -0.0041943162
              4  39        -0.0040476733

    Largest TIjAb Amplitudes:
      2   2  37  37        -0.0089197248
      2   2  42  42        -0.0087014409
      2   2  14  37         0.0068757024
      2   2  37  14         0.0068757024
      0   0 268 268        -0.0068046096
      3   3  42  42        -0.0066385405
      2   2  14  14        -0.0059071494
      3   3  30  30        -0.0056335431
      4   4  79  79        -0.0053143327
      2   2  23  42         0.0053021634

    SCF energy       (wfn)                    =  -76.059655871591957
    Reference energy (file100)                =  -76.059655871592028

    Opposite-spin MP2 correlation energy      =   -0.217067266891212
    Same-spin MP2 correlation energy          =   -0.068639167355354
    Singles MP2 correlation energy            =   -0.000000000000000
    MP2 correlation energy                    =   -0.285706434246566
      * MP2 total energy                      =  -76.345362305838592

    Opposite-spin CCSD correlation energy     =   -0.229099621566348
    Same-spin CCSD correlation energy         =   -0.061108124517106
    Singles CCSD correlation energy           =    0.000000000000000
    CCSD correlation energy                   =   -0.290207746083454
      * CCSD total energy                     =  -76.349863617675481

            **************************
            *                        *
            *        CCTRIPLES       *
            *                        *
            **************************


    Wave function   =    CCSD_T
    Reference wfn   =      RHF

    Nuclear Rep. energy (wfn)                =    9.086387827632095
    SCF energy          (wfn)                =  -76.059655871591957
    Reference energy    (file100)            =  -76.059655871592028
    CCSD energy         (file100)            =   -0.290207746083454
    Total CCSD energy   (file100)            =  -76.349863617675481

    Number of ijk index combinations:               35
    Memory available in words               :      2500000000
    Approx. words needed per explicit thread:        79610044
    Number of threads for explicit ijk threading:    1

    MKL num_threads set to 1 for explicit threading.

    (T) energy                                =   -0.008927834356156
      * CCSD(T) total energy                  =  -76.358791452031639


    Psi4 stopped on: Tuesday, 19 September 2023 01:16AM
    Psi4 wall time for execution: 0:32:30.61


    -----------------------------------------------------------------------
          Psi4: An Open-Source Ab Initio Electronic Structure Package
                               Psi4 1.7 release

                         Git: Rev {HEAD} 6ce35a5 


    D. G. A. Smith, L. A. Burns, A. C. Simmonett, R. M. Parrish,
    M. C. Schieber, R. Galvelis, P. Kraus, H. Kruse, R. Di Remigio,
    A. Alenaizan, A. M. James, S. Lehtola, J. P. Misiewicz, M. Scheurer,
    R. A. Shaw, J. B. Schriber, Y. Xie, Z. L. Glick, D. A. Sirianni,
    J. S. O'Brien, J. M. Waldrop, A. Kumar, E. G. Hohenstein,
    B. P. Pritchard, B. R. Brooks, H. F. Schaefer III, A. Yu. Sokolov,
    K. Patkowski, A. E. DePrince III, U. Bozkaya, R. A. King,
    F. A. Evangelista, J. M. Turney, T. D. Crawford, C. D. Sherrill,
    J. Chem. Phys. 152(18) 184108 (2020). https://doi.org/10.1063/5.0006002

                            Additional Code Authors
    E. T. Seidl, C. L. Janssen, E. F. Valeev, M. L. Leininger,
    J. F. Gonthier, R. M. Richard, H. R. McAlexander, M. Saitow, X. Wang,
    P. Verma, M. H. Lechner, A. Jiang, S. Behnle, A. G. Heide,
    M. F. Herbst, and D. L. Poole

             Previous Authors, Complete List of Code Contributors,
                       and Citations for Specific Modules
    https://github.com/psi4/psi4/blob/master/codemeta.json
    https://github.com/psi4/psi4/graphs/contributors
    http://psicode.org/psi4manual/master/introduction.html#citing-psifour

    -----------------------------------------------------------------------


    Psi4 started on: Sunday, 17 September 2023 12:48PM

    Process ID: 258105
    Host:       d-19-15-2
    PSIDATADIR: /home/gridsan/kfisher/.conda/envs/p4env/share/psi4
    Memory:     18.6 GiB
    Threads:    1
    
  ==> Input QCSchema <==

--------------------------------------------------------------------------
{'driver': 'energy',
 'extras': {'psiapi': True, 'wfn_qcvars_only': True},
 'id': None,
 'keywords': {'D_CONVERGENCE': 1e-10, 'E_CONVERGENCE': 1e-10, 'function_kwargs': {}},
 'model': {'basis': 'aug-cc-pvtz', 'method': 'ccsd(t)'},
 'molecule': {'atom_labels': ['', '', '', '', '', '', '', '', ''],
              'atomic_numbers': [1, 1, 8, 1, 1, 8, 1, 1, 8],
              'fix_com': True,
              'fix_orientation': True,
              'fix_symmetry': 'c1',
              'fragment_charges': [0.0, 0.0, 0.0],
              'fragment_multiplicities': [1, 1, 1],
              'fragments': [[0, 1, 2], [3, 4, 5], [6, 7, 8]],
              'geometry': [-1.677933350296368, -2.842119160981593, -5.701029823601644, -4.233833175021524,
                           -1.4586854732891477, -4.790487078592016, -2.419644826312225, -1.215250934910409,
                           -5.267399131702672, -1.2039356895081763, 0.155233385610075, -2.224915824529379,
                           -0.1769199771121353, 2.6197960192668477, -1.1207825243439258, 0.0019871415072251794,
                           0.7899298979083906, -1.0186858185322842, -3.5118867602915778, -1.1931166483919666,
                           4.123098493295892, -2.4228477042250023, 0.20334887412055455, 1.7746173135668604,
                           -3.91627726631707, -0.7058225344343512, 2.4000386531989424],
              'mass_numbers': [1, 1, 16, 1, 1, 16, 1, 1, 16],
              'masses': [1.00782503223, 1.00782503223, 15.99491461957, 1.00782503223, 1.00782503223, 15.99491461957,
                         1.00782503223, 1.00782503223, 15.99491461957],
              'molecular_charge': 0.0,
              'molecular_multiplicity': 1,
              'name': 'H6O3',
              'provenance': {'creator': 'QCElemental',
                             'routine': 'qcelemental.molparse.from_string',
                             'version': 'v0.25.1'},
              'real': [False, False, False, True, True, True, True, True, True],
              'schema_name': 'qcschema_molecule',
              'schema_version': 2,
              'symbols': ['H', 'H', 'O', 'H', 'H', 'O', 'H', 'H', 'O'],
              'validated': True},
 'protocols': {'stdout': True},
 'provenance': {'creator': 'QCElemental', 'routine': 'qcelemental.models.results', 'version': 'v0.25.1'},
 'schema_name': 'qcschema_input',
 'schema_version': 1}
--------------------------------------------------------------------------

Scratch directory: /home/gridsan/kfisher/scratch/

*** tstart() called on d-19-15-2
*** at Tue Sep 19 01:16:14 2023

   => Loading Basis Set <=

    Name: AUG-CC-PVTZ
    Role: ORBITAL
    Keyword: BASIS
    atoms 1-2, 4-5, 7-8 entry H          line    40 file /home/gridsan/kfisher/.conda/envs/p4env/share/psi4/basis/aug-cc-pvtz.gbs 
    atoms 3, 6, 9       entry O          line   331 file /home/gridsan/kfisher/.conda/envs/p4env/share/psi4/basis/aug-cc-pvtz.gbs 


         ---------------------------------------------------------
                                   SCF
               by Justin Turney, Rob Parrish, Andy Simmonett
                          and Daniel G. A. Smith
                              RHF Reference
                        1 Threads,  19073 MiB Core
         ---------------------------------------------------------

  ==> Geometry <==

    Molecular point group: c1
    Full point group: C1

    Geometry (in Bohr), charge = 0, multiplicity = 1:

       Center              X                  Y                   Z               Mass       
    ------------   -----------------  -----------------  -----------------  -----------------
      Gh(H)          -1.677933350296    -2.842119160982    -5.701029823602     1.007825032230
      Gh(H)          -4.233833175022    -1.458685473289    -4.790487078592     1.007825032230
      Gh(O)          -2.419644826312    -1.215250934910    -5.267399131703    15.994914619570
         H           -1.203935689508     0.155233385610    -2.224915824529     1.007825032230
         H           -0.176919977112     2.619796019267    -1.120782524344     1.007825032230
         O            0.001987141507     0.789929897908    -1.018685818532    15.994914619570
         H           -3.511886760292    -1.193116648392     4.123098493296     1.007825032230
         H           -2.422847704225     0.203348874121     1.774617313567     1.007825032230
         O           -3.916277266317    -0.705822534434     2.400038653199    15.994914619570

  Running in c1 symmetry.

  Rotational constants: A =      0.14835  B =      0.08691  C =      0.05725 [cm^-1]
  Rotational constants: A =   4447.28266  B =   2605.61218  C =   1716.44316 [MHz]
  Nuclear repulsion =   36.810620819896123

  Charge       = 0
  Multiplicity = 1
  Electrons    = 20
  Nalpha       = 10
  Nbeta        = 10

  ==> Algorithm <==

  SCF Algorithm Type is PK.
  DIIS enabled.
  MOM disabled.
  Fractional occupation disabled.
  Guess Type is SAD.
  Energy threshold   = 1.00e-10
  Density threshold  = 1.00e-10
  Integral threshold = 1.00e-12

  ==> Primary Basis <==

  Basis Set: AUG-CC-PVTZ
    Blend: AUG-CC-PVTZ
    Number of shells: 96
    Number of basis functions: 276
    Number of Cartesian functions: 315
    Spherical Harmonics?: true
    Max angular momentum: 3

  ==> Integral Setup <==

  Using in-core PK algorithm.
   Calculation information:
      Number of atoms:                   9
      Number of AO shells:              96
      Number of primitives:            156
      Number of atomic orbitals:       315
      Number of basis functions:       276

      Integral cutoff                 1.00e-12
      Number of threads:                 1

  Performing in-core PK
  Using 1461265302 doubles for integral storage.
  We computed 9632822 shell quartets total.
  Whereas there are 10841496 unique shell quartets.

  ==> DiskJK: Disk-Based J/K Matrices <==

    J tasked:                  Yes
    K tasked:                  Yes
    wK tasked:                  No
    Memory [MiB]:            14305
    Schwarz Cutoff:          1E-12

    OpenMP threads:              1

  Minimum eigenvalue in the overlap matrix is 1.5488633849E-04.
  Reciprocal condition number of the overlap matrix is 1.4290565749E-05.
    Using symmetric orthogonalization.

  ==> Pre-Iterations <==

  SCF Guess: Superposition of Atomic Densities via on-the-fly atomic UHF (no occupation information).

   -------------------------
    Irrep   Nso     Nmo    
   -------------------------
     A        276     276 
   -------------------------
    Total     276     276
   -------------------------

  ==> Iterations <==

                        Total Energy        Delta E     RMS |[F,P]|

   @RHF iter SAD:  -151.01639326474162   -1.51016e+02   0.00000e+00 
   @RHF iter   1:  -151.96482037561458   -9.48427e-01   2.30932e-03 DIIS/ADIIS
   @RHF iter   2:  -152.06582192795312   -1.01002e-01   1.53558e-03 DIIS/ADIIS
   @RHF iter   3:  -152.12089679888754   -5.50749e-02   1.14510e-04 DIIS/ADIIS
   @RHF iter   4:  -152.12175874215836   -8.61943e-04   2.82513e-05 DIIS
   @RHF iter   5:  -152.12181556392596   -5.68218e-05   9.02637e-06 DIIS
   @RHF iter   6:  -152.12182133913058   -5.77520e-06   4.17508e-06 DIIS
   @RHF iter   7:  -152.12182220833870   -8.69208e-07   8.54064e-07 DIIS
   @RHF iter   8:  -152.12182228438459   -7.60459e-08   1.40745e-07 DIIS
   @RHF iter   9:  -152.12182228636078   -1.97619e-09   2.43585e-08 DIIS
   @RHF iter  10:  -152.12182228641592   -5.51381e-11   7.08679e-09 DIIS
   @RHF iter  11:  -152.12182228642070   -4.77485e-12   1.41725e-09 DIIS
   @RHF iter  12:  -152.12182228642129   -5.96856e-13   3.13518e-10 DIIS
   @RHF iter  13:  -152.12182228642070    5.96856e-13   1.33311e-10 DIIS
   @RHF iter  14:  -152.12182228642081   -1.13687e-13   3.41789e-11 DIIS
  Energy and wave function converged.


  ==> Post-Iterations <==

    Orbital Energies [Eh]
    ---------------------

    Doubly Occupied:                                                      

       1A    -20.589070     2A    -20.546760     3A     -1.371533  
       4A     -1.322504     5A     -0.732087     6A     -0.695042  
       7A     -0.606541     8A     -0.564780     9A     -0.525978  
      10A     -0.487936  

    Virtual:                                                              

      11A      0.021322    12A      0.040133    13A      0.044497  
      14A      0.054327    15A      0.069659    16A      0.079560  
      17A      0.118382    18A      0.126408    19A      0.137169  
      20A      0.153088    21A      0.164556    22A      0.169793  
      23A      0.180837    24A      0.187130    25A      0.193531  
      26A      0.223028    27A      0.229455    28A      0.230836  
      29A      0.254115    30A      0.260613    31A      0.275178  
      32A      0.283730    33A      0.293837    34A      0.312977  
      35A      0.316472    36A      0.335076    37A      0.355559  
      38A      0.360761    39A      0.370527    40A      0.384063  
      41A      0.390267    42A      0.400056    43A      0.412971  
      44A      0.421532    45A      0.427641    46A      0.447038  
      47A      0.450821    48A      0.468981    49A      0.483707  
      50A      0.500610    51A      0.568188    52A      0.591524  
      53A      0.607930    54A      0.632717    55A      0.666925  
      56A      0.690319    57A      0.693504    58A      0.726127  
      59A      0.745716    60A      0.753661    61A      0.762666  
      62A      0.773497    63A      0.780650    64A      0.790470  
      65A      0.806402    66A      0.817546    67A      0.828164  
      68A      0.851307    69A      0.859845    70A      0.876911  
      71A      0.882835    72A      0.901636    73A      0.907846  
      74A      0.915013    75A      0.935655    76A      0.942287  
      77A      0.953320    78A      0.965907    79A      0.976803  
      80A      0.983149    81A      0.989587    82A      0.997708  
      83A      1.016315    84A      1.024189    85A      1.047234  
      86A      1.051047    87A      1.061490    88A      1.063079  
      89A      1.080906    90A      1.134395    91A      1.147990  
      92A      1.149749    93A      1.157213    94A      1.165966  
      95A      1.182559    96A      1.193010    97A      1.211534  
      98A      1.224269    99A      1.240438   100A      1.258713  
     101A      1.265810   102A      1.297912   103A      1.309655  
     104A      1.354980   105A      1.389170   106A      1.414986  
     107A      1.426558   108A      1.486079   109A      1.514619  
     110A      1.521700   111A      1.549454   112A      1.566361  
     113A      1.572551   114A      1.617428   115A      1.635947  
     116A      1.654128   117A      1.681492   118A      1.715247  
     119A      1.745071   120A      1.782697   121A      1.799683  
     122A      1.832818   123A      1.849934   124A      1.880811  
     125A      1.903485   126A      1.954110   127A      1.970031  
     128A      1.999847   129A      2.037568   130A      2.076976  
     131A      2.233332   132A      2.308225   133A      2.320564  
     134A      2.341894   135A      2.369121   136A      2.390182  
     137A      2.409279   138A      2.443546   139A      2.472893  
     140A      2.477517   141A      2.502383   142A      2.507114  
     143A      2.513697   144A      2.539990   145A      2.563362  
     146A      2.590722   147A      2.596684   148A      2.633127  
     149A      2.649509   150A      2.660424   151A      2.696908  
     152A      2.715865   153A      2.739979   154A      2.788041  
     155A      2.796743   156A      2.809156   157A      2.873951  
     158A      2.888571   159A      2.897115   160A      2.926899  
     161A      2.955218   162A      2.975926   163A      2.981382  
     164A      3.017726   165A      3.085235   166A      3.109478  
     167A      3.169856   168A      3.195892   169A      3.256344  
     170A      3.309783   171A      3.480282   172A      3.593591  
     173A      3.695850   174A      3.739966   175A      3.881066  
     176A      3.979840   177A      4.046727   178A      4.088401  
     179A      4.137126   180A      4.196946   181A      4.234278  
     182A      4.256064   183A      4.278338   184A      4.290853  
     185A      4.314397   186A      4.356252   187A      4.390137  
     188A      4.403032   189A      4.428927   190A      4.441880  
     191A      4.456519   192A      4.515577   193A      4.546056  
     194A      4.562279   195A      4.583103   196A      4.596122  
     197A      4.637970   198A      4.651856   199A      4.698792  
     200A      4.740718   201A      4.758720   202A      4.787963  
     203A      4.866114   204A      4.968823   205A      4.987656  
     206A      5.016499   207A      5.073974   208A      5.128256  
     209A      5.138027   210A      5.148482   211A      5.207258  
     212A      5.227299   213A      5.265056   214A      5.314110  
     215A      5.350607   216A      5.367613   217A      5.420116  
     218A      5.446916   219A      5.499034   220A      5.577063  
     221A      5.672554   222A      5.729924   223A      5.750575  
     224A      5.795975   225A      5.811689   226A      6.235635  
     227A      6.259255   228A      6.289063   229A      6.355615  
     230A      6.554365   231A      6.587442   232A      6.649944  
     233A      6.795832   234A      6.813439   235A      6.929277  
     236A      6.949837   237A      6.992268   238A      7.146379  
     239A      7.226420   240A      7.280073   241A      7.298939  
     242A      7.311857   243A      7.325476   244A      7.358651  
     245A      7.367134   246A      7.388530   247A      7.478120  
     248A      7.515842   249A      7.546862   250A      7.674738  
     251A      7.742451   252A      7.765225   253A      7.843498  
     254A      7.957881   255A      7.975155   256A      8.017746  
     257A      8.051801   258A      8.136874   259A      8.192012  
     260A      8.264689   261A      8.649682   262A      8.660224  
     263A      8.769736   264A      8.876061   265A      9.817300  
     266A      9.975149   267A     10.042374   268A     10.256402  
     269A     10.988474   270A     11.825242   271A     12.065245  
     272A     13.335271   273A     13.909127   274A     15.841103  
     275A     16.878097   276A     64.493484  

    Final Occupation by Irrep:
              A 
    DOCC [    10 ]
    NA   [    10 ]
    NB   [    10 ]

  @RHF Final Energy:  -152.12182228642081

   => Energetics <=

    Nuclear Repulsion Energy =             36.8106208198961227
    One-Electron Energy =                -282.9804239613186496
    Two-Electron Energy =                  94.0479808550017111
    Total Energy =                       -152.1218222864208087

Computation Completed


Properties will be evaluated at   0.000000,   0.000000,   0.000000 [a0]

Properties computed using the SCF density matrix


 Multipole Moments:

 ------------------------------------------------------------------------------------
     Multipole            Electronic (a.u.)      Nuclear  (a.u.)        Total (a.u.)
 ------------------------------------------------------------------------------------

 L = 1.  Multiply by 2.5417464519 to convert [e a0] to [Debye]
 Dipole X            :         38.9258194          -38.6299111            0.2959083
 Dipole Y            :         -1.8654324            2.4581205            0.5926882
 Dipole Z            :        -13.8032879           13.6028401           -0.2004477
 Magnitude           :                                                    0.6921129

 ------------------------------------------------------------------------------------

*** tstop() called on d-19-15-2 at Tue Sep 19 01:17:45 2023
Module time:
	user time   =      84.60 seconds =       1.41 minutes
	system time =       4.58 seconds =       0.08 minutes
	total time  =         91 seconds =       1.52 minutes
Total time:
	user time   =   77183.48 seconds =    1286.39 minutes
	system time =   39423.71 seconds =     657.06 minutes
	total time  =     131361 seconds =    2189.35 minutes
 MINTS: Wrapper to libmints.
   by Justin Turney

   Calculation information:
      Number of threads:                 1
      Number of atoms:                   9
      Number of AO shells:              96
      Number of SO shells:              96
      Number of primitives:            156
      Number of atomic orbitals:       315
      Number of basis functions:       276

      Number of irreps:                  1
      Integral cutoff                 1.00e-12
      Number of functions per irrep: [ 276 ]

 OEINTS: Overlap, kinetic, potential, dipole, and quadrupole integrals
         stored in file 35.

      Computing two-electron integrals...done
      Computed 595610874 non-zero two-electron integrals.
        Stored in file 33.


*** tstart() called on d-19-15-2
*** at Tue Sep 19 01:18:44 2023


	Wfn Parameters:
	--------------------
	Wavefunction         = CCSD_T
	Number of irreps     = 1
	Number of MOs        = 276
	Number of active MOs = 276
	AO-Basis             = NONE
	Semicanonical        = false
	Reference            = RHF
	Print Level          = 1

	IRREP	# MOs	# FZDC	# DOCC	# SOCC	# VIRT	# FZVR
	-----	-----	------	------	------	------	------
	 A	   276	    0	    10	    0	    266	    0
	Transforming integrals...
	IWL integrals will be deleted.
	(OO|OO)...
	Presorting SO-basis two-electron integrals.
	Sorting File: SO Ints (nn|nn) nbuckets = 1
	Constructing frozen core operators
	Starting first half-transformation.
	Sorting half-transformed integrals.
	First half integral transformation complete.
	Starting second half-transformation.
	Two-electron integral transformation complete.
	(OO|OV)...
	Starting second half-transformation.
	Two-electron integral transformation complete.
	(OO|VV)...
	Starting second half-transformation.
	Two-electron integral transformation complete.
	(OV|OO)...
	Starting first half-transformation.
	Sorting half-transformed integrals.
	First half integral transformation complete.
	Starting second half-transformation.
	Two-electron integral transformation complete.
	(OV|OV)...
	Starting second half-transformation.
	Two-electron integral transformation complete.
	(OV|VV)...
	Starting second half-transformation.
	Two-electron integral transformation complete.
	(VV|OO)...
	Starting first half-transformation.
	Sorting half-transformed integrals.
	First half integral transformation complete.
	Starting second half-transformation.
	Two-electron integral transformation complete.
	(VV|OV)...
	Starting second half-transformation.
	Two-electron integral transformation complete.
	(VV|VV)...
	Starting second half-transformation.
	Two-electron integral transformation complete.
	Frozen core energy     =      0.00000000000000

	Size of irrep 0 of <ab|cd> integrals:   5006.412 (MW) /  40051.292 (MB)
	Total:                                  5006.412 (MW) /  40051.292 (MB)

	Size of irrep 0 of <ia|bc> integrals:    188.211 (MW) /   1505.688 (MB)
	Total:                                   188.211 (MW) /   1505.688 (MB)

	Size of irrep 0 of tijab amplitudes:       7.076 (MW) /     56.605 (MB)
	Total:                                     7.076 (MW) /     56.605 (MB)

	Nuclear Rep. energy          =     36.81062081989612
	SCF energy                   =   -152.12182228642081
	One-electron energy          =   -282.98042394590766
	Two-electron energy          =     94.04798083959105
	Reference energy             =   -152.12182228642050

*** tstop() called on d-19-15-2 at Tue Sep 19 01:36:19 2023
Module time:
	user time   =     520.64 seconds =       8.68 minutes
	system time =     350.74 seconds =       5.85 minutes
	total time  =       1055 seconds =      17.58 minutes
Total time:
	user time   =   77747.43 seconds =    1295.79 minutes
	system time =   39789.78 seconds =     663.16 minutes
	total time  =     132475 seconds =    2207.92 minutes
            **************************
            *                        *
            *        CCENERGY        *
            *                        *
            **************************

    Nuclear Rep. energy (wfn)     =   36.810620819896123
    SCF energy          (wfn)     = -152.121822286420809
    Reference energy    (file100) = -152.121822286420496

    Input parameters:
    -----------------
    Wave function   =     CCSD_T
    Reference wfn   =     RHF
    Brueckner       =     No
    Memory (Mbytes) =     20000.0
    Maxiter         =     50
    R_Convergence   =     1.0e-07
    E_Convergence   =     1.0e-10
    Restart         =     Yes
    DIIS            =     Yes
    AO Basis        =     NONE
    ABCD            =     NEW
    Cache Level     =     2
    Cache Type      =     LOW
    Print Level     =     1
    Num. of threads =     1
    # Amps to Print =     10
    Print MP2 Amps? =     No
    Analyze T2 Amps =     No
    Print Pair Ener =     No
    Local CC        =     No
    SCS-MP2         =     False
    SCSN-MP2        =     False
    SCS-CCSD        =     False

MP2 correlation energy -0.5734508104707893
                Solving CC Amplitude Equations
                ------------------------------
  Iter             Energy              RMS        T1Diag      D1Diag    New D1Diag    D2Diag
  ----     ---------------------    ---------   ----------  ----------  ----------   --------
     0        -0.573450810470789    0.000e+00    0.000000    0.000000    0.000000    0.120649
     1        -0.569194107094006    5.119e-02    0.007874    0.018851    0.018851    0.121891
     2        -0.579517833866540    1.800e-02    0.007738    0.018589    0.018589    0.126561
     3        -0.582264837903051    7.150e-03    0.009023    0.022466    0.022466    0.128710
     4        -0.581985813460169    1.546e-03    0.009198    0.023028    0.023028    0.128897
     5        -0.582007155030679    6.160e-04    0.009297    0.023452    0.023452    0.128957
     6        -0.582022553739737    1.695e-04    0.009324    0.023571    0.023571    0.128955
     7        -0.582018384182849    6.575e-05    0.009330    0.023611    0.023611    0.128946
     8        -0.582016700203482    2.113e-05    0.009332    0.023622    0.023622    0.128944
     9        -0.582017062350359    8.600e-06    0.009332    0.023627    0.023627    0.128943
    10        -0.582016548605975    3.722e-06    0.009333    0.023628    0.023628    0.128943
    11        -0.582016557009027    1.549e-06    0.009333    0.023628    0.023628    0.128943
    12        -0.582016531379785    7.403e-07    0.009333    0.023629    0.023629    0.128943
[...]
  Nuclear repulsion =   36.810620819896123

  Charge       = 0
  Multiplicity = 1
  Electrons    = 20
  Nalpha       = 10
  Nbeta        = 10

  ==> Algorithm <==

  SCF Algorithm Type is PK.
  DIIS enabled.
  MOM disabled.
  Fractional occupation disabled.
  Guess Type is SAD.
  Energy threshold   = 1.00e-10
  Density threshold  = 1.00e-10
  Integral threshold = 1.00e-12

  ==> Primary Basis <==

  Basis Set: AUG-CC-PVTZ
    Blend: AUG-CC-PVTZ
    Number of shells: 64
    Number of basis functions: 184
    Number of Cartesian functions: 210
    Spherical Harmonics?: true
    Max angular momentum: 3

  ==> Integral Setup <==

  Using in-core PK algorithm.
   Calculation information:
      Number of atoms:                   6
      Number of AO shells:              64
      Number of primitives:            104
      Number of atomic orbitals:       210
      Number of basis functions:       184

      Integral cutoff                 1.00e-12
      Number of threads:                 1

  Performing in-core PK
  Using 289697420 doubles for integral storage.
  We computed 2086097 shell quartets total.
  Whereas there are 2164240 unique shell quartets.

  ==> DiskJK: Disk-Based J/K Matrices <==

    J tasked:                  Yes
    K tasked:                  Yes
    wK tasked:                  No
    Memory [MiB]:            14305
    Schwarz Cutoff:          1E-12

    OpenMP threads:              1

  Minimum eigenvalue in the overlap matrix is 2.4026189637E-04.
  Reciprocal condition number of the overlap matrix is 2.5817139531E-05.
    Using symmetric orthogonalization.

  ==> Pre-Iterations <==

  SCF Guess: Superposition of Atomic Densities via on-the-fly atomic UHF (no occupation information).

   -------------------------
    Irrep   Nso     Nmo    
   -------------------------
     A        184     184 
   -------------------------
    Total     184     184
   -------------------------

  ==> Iterations <==

                        Total Energy        Delta E     RMS |[F,P]|

   @RHF iter SAD:  -151.01639326474162   -1.51016e+02   0.00000e+00 
   @RHF iter   1:  -151.96477635785078   -9.48383e-01   3.46387e-03 DIIS/ADIIS
   @RHF iter   2:  -152.06576931037051   -1.00993e-01   2.30321e-03 DIIS/ADIIS
   @RHF iter   3:  -152.12083633994442   -5.50670e-02   1.73112e-04 DIIS/ADIIS
   @RHF iter   4:  -152.12170303717699   -8.66697e-04   4.23299e-05 DIIS
   @RHF iter   5:  -152.12175985027946   -5.68131e-05   1.35268e-05 DIIS
   @RHF iter   6:  -152.12176562358394   -5.77330e-06   6.25949e-06 DIIS
   @RHF iter   7:  -152.12176649123739   -8.67653e-07   1.28014e-06 DIIS
   @RHF iter   8:  -152.12176656712106   -7.58837e-08   2.10856e-07 DIIS
   @RHF iter   9:  -152.12176656909082   -1.96977e-09   3.64429e-08 DIIS
   @RHF iter  10:  -152.12176656914556   -5.47402e-11   1.06225e-08 DIIS
   @RHF iter  11:  -152.12176656915031   -4.74643e-12   2.12284e-09 DIIS
   @RHF iter  12:  -152.12176656915037   -5.68434e-14   4.69510e-10 DIIS
   @RHF iter  13:  -152.12176656915034    2.84217e-14   1.97596e-10 DIIS
   @RHF iter  14:  -152.12176656915048   -1.42109e-13   5.13574e-11 DIIS
  Energy and wave function converged.


  ==> Post-Iterations <==

    Orbital Energies [Eh]
    ---------------------

    Doubly Occupied:                                                      

       1A    -20.589073     2A    -20.546763     3A     -1.371556  
       4A     -1.322508     5A     -0.732106     6A     -0.695047  
       7A     -0.606559     8A     -0.564786     9A     -0.525991  
      10A     -0.487938  

    Virtual:                                                              

      11A      0.025381    12A      0.044644    13A      0.048307  
      14A      0.075363    15A      0.120093    16A      0.145302  
      17A      0.166502    18A      0.172633    19A      0.179348  
      20A      0.182482    21A      0.209524    22A      0.229159  
      23A      0.231383    24A      0.241679    25A      0.262622  
      26A      0.263605    27A      0.305156    28A      0.319568  
      29A      0.365875    30A      0.368112    31A      0.391923  
      32A      0.398355    33A      0.425721    34A      0.443168  
      35A      0.445419    36A      0.464896    37A      0.482894  
      38A      0.559623    39A      0.597182    40A      0.607681  
      41A      0.658570    42A      0.683205    43A      0.712946  
      44A      0.733157    45A      0.752820    46A      0.762750  
      47A      0.775065    48A      0.819738    49A      0.828581  
      50A      0.848346    51A      0.862000    52A      0.896324  
      53A      0.917373    54A      0.931708    55A      0.936952  
      56A      0.948993    57A      0.967452    58A      0.978036  
      59A      0.990238    60A      1.008513    61A      1.033807  
      62A      1.041766    63A      1.051728    64A      1.056905  
      65A      1.087692    66A      1.098424    67A      1.129153  
      68A      1.160020    69A      1.188955    70A      1.217961  
      71A      1.233062    72A      1.246551    73A      1.282541  
      74A      1.308107    75A      1.359546    76A      1.421448  
      77A      1.482845    78A      1.504930    79A      1.549223  
      80A      1.580781    81A      1.598939    82A      1.652008  
      83A      1.668834    84A      1.702822    85A      1.813500  
      86A      1.842998    87A      1.922249    88A      1.978886  
      89A      2.045535    90A      2.068302    91A      2.217043  
      92A      2.279190    93A      2.310198    94A      2.331683  
      95A      2.359401    96A      2.380360    97A      2.419537  
      98A      2.435031    99A      2.464352   100A      2.479167  
     101A      2.509154   102A      2.526401   103A      2.545246  
     104A      2.618009   105A      2.642371   106A      2.675602  
     107A      2.698273   108A      2.745592   109A      2.788818  
     110A      2.804247   111A      2.834403   112A      2.885702  
     113A      2.900789   114A      2.914447   115A      2.965641  
     116A      3.056535   117A      3.722711   118A      3.807047  
     119A      3.845105   120A      3.975500   121A      4.014183  
     122A      4.066483   123A      4.156226   124A      4.226224  
     125A      4.243936   126A      4.249849   127A      4.270391  
     128A      4.315260   129A      4.343900   130A      4.385479  
     131A      4.407962   132A      4.417082   133A      4.432994  
     134A      4.501374   135A      4.525898   136A      4.544391  
     137A      4.621929   138A      4.728902   139A      4.738044  
     140A      4.848835   141A      4.885384   142A      4.985007  
     143A      5.118963   144A      5.130402   145A      5.137239  
     146A      5.215987   147A      5.260468   148A      5.328410  
     149A      5.351864   150A      5.360428   151A      5.490537  
     152A      5.697089   153A      5.707008   154A      5.749155  
     155A      6.215287   156A      6.250271   157A      6.529578  
     158A      6.576972   159A      6.722959   160A      6.788982  
     161A      6.919428   162A      6.940969   163A      7.135659  
     164A      7.214588   165A      7.268916   166A      7.269925  
     167A      7.294008   168A      7.307227   169A      7.327314  
     170A      7.352346   171A      7.368231   172A      7.375561  
     173A      7.448561   174A      7.500030   175A      7.610264  
     176A      7.699625   177A      7.877396   178A      7.932180  
     179A      8.003680   180A      8.043785   181A      8.755348  
     182A      8.837925   183A     15.776991   184A     15.979526  

    Final Occupation by Irrep:
              A 
    DOCC [    10 ]
    NA   [    10 ]
    NB   [    10 ]

  @RHF Final Energy:  -152.12176656915048

   => Energetics <=

    Nuclear Repulsion Energy =             36.8106208198961227
    One-Electron Energy =                -282.9801208744876817
    Two-Electron Energy =                  94.0477334854410856
    Total Energy =                       -152.1217665691504806

Computation Completed


Properties will be evaluated at   0.000000,   0.000000,   0.000000 [a0]

Properties computed using the SCF density matrix


 Multipole Moments:

 ------------------------------------------------------------------------------------
     Multipole            Electronic (a.u.)      Nuclear  (a.u.)        Total (a.u.)
 ------------------------------------------------------------------------------------

 L = 1.  Multiply by 2.5417464519 to convert [e a0] to [Debye]
 Dipole X            :         38.9258286          -38.6299111            0.2959175
 Dipole Y            :         -1.8654895            2.4581205            0.5926311
 Dipole Z            :        -13.8032727           13.6028401           -0.2004326
 Magnitude           :                                                    0.6920636

 ------------------------------------------------------------------------------------

*** tstop() called on d-19-15-2 at Tue Sep 19 07:04:16 2023
Module time:
	user time   =      17.62 seconds =       0.29 minutes
	system time =       0.54 seconds =       0.01 minutes
	total time  =         19 seconds =       0.32 minutes
Total time:
	user time   =   89206.71 seconds =    1486.78 minutes
	system time =   45922.97 seconds =     765.38 minutes
	total time  =     152152 seconds =    2535.87 minutes
 MINTS: Wrapper to libmints.
   by Justin Turney

   Calculation information:
      Number of threads:                 1
      Number of atoms:                   6
      Number of AO shells:              64
      Number of SO shells:              64
      Number of primitives:            104
      Number of atomic orbitals:       210
      Number of basis functions:       184

      Number of irreps:                  1
      Integral cutoff                 1.00e-12
      Number of functions per irrep: [ 184 ]

 OEINTS: Overlap, kinetic, potential, dipole, and quadrupole integrals
         stored in file 35.

      Computing two-electron integrals...done
      Computed 135437745 non-zero two-electron integrals.
        Stored in file 33.


*** tstart() called on d-19-15-2
*** at Tue Sep 19 07:04:29 2023


	Wfn Parameters:
	--------------------
	Wavefunction         = CCSD_T
	Number of irreps     = 1
	Number of MOs        = 184
	Number of active MOs = 184
	AO-Basis             = NONE
	Semicanonical        = false
	Reference            = RHF
	Print Level          = 1

	IRREP	# MOs	# FZDC	# DOCC	# SOCC	# VIRT	# FZVR
	-----	-----	------	------	------	------	------
	 A	   184	    0	    10	    0	    174	    0
	Transforming integrals...
	IWL integrals will be deleted.
	(OO|OO)...
	Presorting SO-basis two-electron integrals.
	Sorting File: SO Ints (nn|nn) nbuckets = 1
	Constructing frozen core operators
	Starting first half-transformation.
	Sorting half-transformed integrals.
	First half integral transformation complete.
	Starting second half-transformation.
	Two-electron integral transformation complete.
	(OO|OV)...
	Starting second half-transformation.
	Two-electron integral transformation complete.
	(OO|VV)...
	Starting second half-transformation.
	Two-electron integral transformation complete.
	(OV|OO)...
	Starting first half-transformation.
	Sorting half-transformed integrals.
	First half integral transformation complete.
	Starting second half-transformation.
	Two-electron integral transformation complete.
	(OV|OV)...
	Starting second half-transformation.
	Two-electron integral transformation complete.
	(OV|VV)...
	Starting second half-transformation.
	Two-electron integral transformation complete.
	(VV|OO)...
	Starting first half-transformation.
	Sorting half-transformed integrals.
	First half integral transformation complete.
	Starting second half-transformation.
	Two-electron integral transformation complete.
	(VV|OV)...
	Starting second half-transformation.
	Two-electron integral transformation complete.
	(VV|VV)...
	Starting second half-transformation.
	Two-electron integral transformation complete.
	Frozen core energy     =      0.00000000000000

	Size of irrep 0 of <ab|cd> integrals:    916.636 (MW) /   7333.089 (MB)
	Total:                                   916.636 (MW) /   7333.089 (MB)

	Size of irrep 0 of <ia|bc> integrals:     52.680 (MW) /    421.442 (MB)
	Total:                                    52.680 (MW) /    421.442 (MB)

	Size of irrep 0 of tijab amplitudes:       3.028 (MW) /     24.221 (MB)
	Total:                                     3.028 (MW) /     24.221 (MB)

	Nuclear Rep. energy          =     36.81062081989612
	SCF energy                   =   -152.12176656915048
	One-electron energy          =   -282.98012085851735
	Two-electron energy          =     94.04773346947121
	Reference energy             =   -152.12176656915003

*** tstop() called on d-19-15-2 at Tue Sep 19 07:06:31 2023
Module time:
	user time   =      60.82 seconds =       1.01 minutes
	system time =      42.09 seconds =       0.70 minutes
	total time  =        122 seconds =       2.03 minutes
Total time:
	user time   =   89276.44 seconds =    1487.94 minutes
	system time =   45968.63 seconds =     766.14 minutes
	total time  =     152287 seconds =    2538.12 minutes
            **************************
            *                        *
            *        CCENERGY        *
            *                        *
            **************************

    Nuclear Rep. energy (wfn)     =   36.810620819896123
    SCF energy          (wfn)     = -152.121766569150481
    Reference energy    (file100) = -152.121766569150026

    Input parameters:
    -----------------
    Wave function   =     CCSD_T
    Reference wfn   =     RHF
    Brueckner       =     No
    Memory (Mbytes) =     20000.0
    Maxiter         =     50
    R_Convergence   =     1.0e-07
    E_Convergence   =     1.0e-10
    Restart         =     Yes
    DIIS            =     Yes
    AO Basis        =     NONE
    ABCD            =     NEW
    Cache Level     =     2
    Cache Type      =     LOW
    Print Level     =     1
    Num. of threads =     1
    # Amps to Print =     10
    Print MP2 Amps? =     No
    Analyze T2 Amps =     No
    Print Pair Ener =     No
    Local CC        =     No
    SCS-MP2         =     False
    SCSN-MP2        =     False
    SCS-CCSD        =     False

MP2 correlation energy -0.5727361487386763
                Solving CC Amplitude Equations
                ------------------------------
  Iter             Energy              RMS        T1Diag      D1Diag    New D1Diag    D2Diag
  ----     ---------------------    ---------   ----------  ----------  ----------   --------
     0        -0.572736148738676    0.000e+00    0.000000    0.000000    0.000000    0.120645
     1        -0.568479813157222    5.119e-02    0.007876    0.018856    0.018856    0.121891
     2        -0.578800561342085    1.798e-02    0.007741    0.018596    0.018596    0.126562
     3        -0.581545325629888    7.144e-03    0.009027    0.022477    0.022477    0.128711
     4        -0.581263781348975    1.536e-03    0.009202    0.023036    0.023036    0.128897
     5        -0.581287145222136    6.093e-04    0.009301    0.023462    0.023462    0.128957
     6        -0.581301764460289    1.644e-04    0.009327    0.023579    0.023579    0.128954
     7        -0.581297435476279    6.392e-05    0.009333    0.023618    0.023618    0.128945
     8        -0.581295862229685    2.034e-05    0.009334    0.023629    0.023629    0.128943
     9        -0.581296247241476    8.335e-06    0.009335    0.023633    0.023633    0.128943
    10        -0.581295701474995    3.597e-06    0.009335    0.023635    0.023635    0.128943
    11        -0.581295735442343    1.421e-06    0.009335    0.023635    0.023635    0.128943
    12        -0.581295710669639    6.565e-07    0.009335    0.023635    0.023635    0.128943
    13        -0.581295700973730    2.160e-07    0.009335    0.023635    0.023635    0.128943
    14        -0.581295701952589    7.376e-08    0.009335    0.023635    0.023635    0.128943
    15        -0.581295702290212    2.978e-08    0.009335    0.023635    0.023635    0.128943
    16        -0.581295701954829    1.097e-08    0.009335    0.023635    0.023635    0.128943
    17        -0.581295701888590    4.399e-09    0.009335    0.023635    0.023635    0.128943
    18        -0.581295701899820    1.767e-09    0.009335    0.023635    0.023635    0.128943

    Iterations converged.


    Largest TIA Amplitudes:
              9   6        -0.0097218453
              9  16        -0.0081025634
              6   4        -0.0079171110
              8  11         0.0071925268
              9   7         0.0067246019
              8  26         0.0063392832
              7   5         0.0060998542
              9  22        -0.0058972506
              8   7         0.0058806902
              8  13        -0.0058470080

    Largest TIjAb Amplitudes:
      5   5  26  26        -0.0181258833
      4   4  25  25        -0.0177995770
      5   5  29  29        -0.0100234017
      4   4  25  50        -0.0098093399
      4   4  50  25        -0.0098093399
      4   4   8  25        -0.0097870683
      4   4  25   8        -0.0097870683
      5   5  14  26        -0.0094388125
      5   5  26  14        -0.0094388125
      4   4  10  25        -0.0093080700

    SCF energy       (wfn)                    = -152.121766569150481
    Reference energy (file100)                = -152.121766569150026

    Opposite-spin MP2 correlation energy      =   -0.433965439104060
    Same-spin MP2 correlation energy          =   -0.138770709634616
    Singles MP2 correlation energy            =   -0.000000000000000
    MP2 correlation energy                    =   -0.572736148738676
      * MP2 total energy                      = -152.694502717888696

    Opposite-spin CCSD correlation energy     =   -0.457572020850943
    Same-spin CCSD correlation energy         =   -0.123723681048877
    Singles CCSD correlation energy           =    0.000000000000000
    CCSD correlation energy                   =   -0.581295701899820
      * CCSD total energy                     = -152.703062271049845

            **************************
            *                        *
            *        CCTRIPLES       *
            *                        *
            **************************


    Wave function   =    CCSD_T
    Reference wfn   =      RHF

    Nuclear Rep. energy (wfn)                =   36.810620819896123
    SCF energy          (wfn)                = -152.121766569150481
    Reference energy    (file100)            = -152.121766569150026
    CCSD energy         (file100)            =   -0.581295701899820
    Total CCSD energy   (file100)            = -152.703062271049845

    Number of ijk index combinations:              220
    Memory available in words               :      2500000000
    Approx. words needed per explicit thread:        21072096
    Number of threads for explicit ijk threading:    1

    MKL num_threads set to 1 for explicit threading.

    (T) energy                                =   -0.018345076384781
      * CCSD(T) total energy                  = -152.721407347434621


    Psi4 stopped on: Tuesday, 19 September 2023 07:14AM
    Psi4 wall time for execution: 0:10:40.73


  //>>>>>>>>>>>>>>>>>>>>>>>>>>>>>>>>>>>//
  //          ManyBody Results         //
  //<<<<<<<<<<<<<<<<<<<<<<<<<<<<<<<<<<<//


   ==> N-Body: Counterpoise Corrected (CP) energies <==

        n-Body     Total Energy            Interaction Energy                          N-body Contribution to Interaction Energy
                   [Eh]                    [Eh]                  [kcal/mol]            [Eh]                  [kcal/mol]
             1  N/A                         0.000000000000        0.000000000000        0.000000000000        0.000000000000
  FULL/RTN   2  N/A                        -0.005990144532       -3.758872443184       -0.005990144532       -3.758872443184


