Scratch directory: /home/gridsan/kfisher/scratch/

  //>>>>>>>>>>>>>>>>>>>>>>>>>>>>>>>>>>>>>>>>//
  // ManyBody Setup: N-Body Levels [1, 2, 3]//
  //<<<<<<<<<<<<<<<<<<<<<<<<<<<<<<<<<<<<<<<<//

        Number of 1-body computations:     3
        Number of 2-body computations:     3
        Number of 3-body computations:     1

    -----------------------------------------------------------------------
          Psi4: An Open-Source Ab Initio Electronic Structure Package
                               Psi4 1.7 release

                         Git: Rev {HEAD} 6ce35a5 


    D. G. A. Smith, L. A. Burns, A. C. Simmonett, R. M. Parrish,
    M. C. Schieber, R. Galvelis, P. Kraus, H. Kruse, R. Di Remigio,
    A. Alenaizan, A. M. James, S. Lehtola, J. P. Misiewicz, M. Scheurer,
    R. A. Shaw, J. B. Schriber, Y. Xie, Z. L. Glick, D. A. Sirianni,
    J. S. O'Brien, J. M. Waldrop, A. Kumar, E. G. Hohenstein,
    B. P. Pritchard, B. R. Brooks, H. F. Schaefer III, A. Yu. Sokolov,
    K. Patkowski, A. E. DePrince III, U. Bozkaya, R. A. King,
    F. A. Evangelista, J. M. Turney, T. D. Crawford, C. D. Sherrill,
    J. Chem. Phys. 152(18) 184108 (2020). https://doi.org/10.1063/5.0006002

                            Additional Code Authors
    E. T. Seidl, C. L. Janssen, E. F. Valeev, M. L. Leininger,
    J. F. Gonthier, R. M. Richard, H. R. McAlexander, M. Saitow, X. Wang,
    P. Verma, M. H. Lechner, A. Jiang, S. Behnle, A. G. Heide,
    M. F. Herbst, and D. L. Poole

             Previous Authors, Complete List of Code Contributors,
                       and Citations for Specific Modules
    https://github.com/psi4/psi4/blob/master/codemeta.json
    https://github.com/psi4/psi4/graphs/contributors
    http://psicode.org/psi4manual/master/introduction.html#citing-psifour

    -----------------------------------------------------------------------


    Psi4 started on: Sunday, 17 September 2023 12:48PM

    Process ID: 258105
    Host:       d-19-15-2
    PSIDATADIR: /home/gridsan/kfisher/.conda/envs/p4env/share/psi4
    Memory:     18.6 GiB
    Threads:    1
    
  ==> Input QCSchema <==

--------------------------------------------------------------------------
{'driver': 'energy',
 'extras': {'psiapi': True, 'wfn_qcvars_only': True},
 'id': None,
 'keywords': {'D_CONVERGENCE': 1e-10, 'E_CONVERGENCE': 1e-10, 'function_kwargs': {'dft_functional': 'scan-d3zero2b'}},
 'model': {'basis': 'aug-cc-pvtz', 'method': 'scf'},
 'molecule': {'atom_labels': ['', '', '', '', '', '', '', '', ''],
              'atomic_numbers': [1, 1, 8, 1, 1, 8, 1, 1, 8],
              'fix_com': True,
              'fix_orientation': True,
              'fix_symmetry': 'c1',
              'fragment_charges': [0.0, 0.0, 0.0],
              'fragment_multiplicities': [1, 1, 1],
              'fragments': [[0, 1, 2], [3, 4, 5], [6, 7, 8]],
              'geometry': [-1.677933350296368, -2.842119160981593, -5.701029823601644, -4.233833175021524,
                           -1.4586854732891477, -4.790487078592016, -2.419644826312225, -1.215250934910409,
                           -5.267399131702672, -1.2039356895081763, 0.155233385610075, -2.224915824529379,
                           -0.1769199771121353, 2.6197960192668477, -1.1207825243439258, 0.0019871415072251794,
                           0.7899298979083906, -1.0186858185322842, -3.5118867602915778, -1.1931166483919666,
                           4.123098493295892, -2.4228477042250023, 0.20334887412055455, 1.7746173135668604,
                           -3.91627726631707, -0.7058225344343512, 2.4000386531989424],
              'mass_numbers': [1, 1, 16, 1, 1, 16, 1, 1, 16],
              'masses': [1.00782503223, 1.00782503223, 15.99491461957, 1.00782503223, 1.00782503223, 15.99491461957,
                         1.00782503223, 1.00782503223, 15.99491461957],
              'molecular_charge': 0.0,
              'molecular_multiplicity': 1,
              'name': 'H6O3',
              'provenance': {'creator': 'QCElemental',
                             'routine': 'qcelemental.molparse.from_string',
                             'version': 'v0.25.1'},
              'real': [True, True, True, False, False, False, False, False, False],
              'schema_name': 'qcschema_molecule',
              'schema_version': 2,
              'symbols': ['H', 'H', 'O', 'H', 'H', 'O', 'H', 'H', 'O'],
              'validated': True},
 'protocols': {'stdout': True},
 'provenance': {'creator': 'QCElemental', 'routine': 'qcelemental.models.results', 'version': 'v0.25.1'},
 'schema_name': 'qcschema_input',
 'schema_version': 1}
--------------------------------------------------------------------------

Scratch directory: /home/gridsan/kfisher/scratch/

*** tstart() called on d-19-15-2
*** at Tue Sep 19 00:03:19 2023

   => Loading Basis Set <=

    Name: AUG-CC-PVTZ
    Role: ORBITAL
    Keyword: BASIS
    atoms 1-2, 4-5, 7-8 entry H          line    40 file /home/gridsan/kfisher/.conda/envs/p4env/share/psi4/basis/aug-cc-pvtz.gbs 
    atoms 3, 6, 9       entry O          line   331 file /home/gridsan/kfisher/.conda/envs/p4env/share/psi4/basis/aug-cc-pvtz.gbs 

   => SCAN-D3: Empirical Dispersion <=

    Grimme's -D3 (zero-damping) Dispersion Correction
    Grimme S.; Antony J.; Ehrlich S.; Krieg H. (2010), J. Chem. Phys., 132: 154104
    Parametrisation from:    J.G. Brandenburg, J. E. Bates, J. Sun, J.P. Perdew, Phys. Rev. B 94, 115144, 2016

        s6 =       1.000000
        s8 =       0.000000
       sr6 =       1.324000
    alpha6 =      14.000000
       sr8 =       1.000000


         ---------------------------------------------------------
                                   SCF
               by Justin Turney, Rob Parrish, Andy Simmonett
                          and Daniel G. A. Smith
                              RKS Reference
                        1 Threads,  19073 MiB Core
         ---------------------------------------------------------

  ==> Geometry <==

    Molecular point group: c1
    Full point group: C1

    Geometry (in Bohr), charge = 0, multiplicity = 1:

       Center              X                  Y                   Z               Mass       
    ------------   -----------------  -----------------  -----------------  -----------------
         H           -1.677933350296    -2.842119160982    -5.701029823602     1.007825032230
         H           -4.233833175022    -1.458685473289    -4.790487078592     1.007825032230
         O           -2.419644826312    -1.215250934910    -5.267399131703    15.994914619570
      Gh(H)          -1.203935689508     0.155233385610    -2.224915824529     1.007825032230
      Gh(H)          -0.176919977112     2.619796019267    -1.120782524344     1.007825032230
      Gh(O)           0.001987141507     0.789929897908    -1.018685818532    15.994914619570
      Gh(H)          -3.511886760292    -1.193116648392     4.123098493296     1.007825032230
      Gh(H)          -2.422847704225     0.203348874121     1.774617313567     1.007825032230
      Gh(O)          -3.916277266317    -0.705822534434     2.400038653199    15.994914619570

  Running in c1 symmetry.

  Rotational constants: A =      0.14835  B =      0.08691  C =      0.05725 [cm^-1]
  Rotational constants: A =   4447.28266  B =   2605.61218  C =   1716.44316 [MHz]
  Nuclear repulsion =    8.905959590449644

  Charge       = 0
  Multiplicity = 1
  Electrons    = 10
  Nalpha       = 5
  Nbeta        = 5

  ==> Algorithm <==

  SCF Algorithm Type is DF.
  DIIS enabled.
  MOM disabled.
  Fractional occupation disabled.
  Guess Type is SAD.
  Energy threshold   = 1.00e-10
  Density threshold  = 1.00e-10
  Integral threshold = 1.00e-12

  ==> Primary Basis <==

  Basis Set: AUG-CC-PVTZ
    Blend: AUG-CC-PVTZ
    Number of shells: 96
    Number of basis functions: 276
    Number of Cartesian functions: 315
    Spherical Harmonics?: true
    Max angular momentum: 3

  ==> DFT Potential <==

   => Composite Functional: SCAN-D3ZERO2B <= 

    SCAN Meta-GGA XC Functional
(10.1103/PhysRevLett.115.036402)
    J. Sun, A. Ruzsinszky, J. P. Perdew  Phys. Rev. Lett. 115, 036402, 2015


    Deriv               =              1
    GGA                 =           TRUE
    Meta                =           TRUE

    Exchange Hybrid     =          FALSE
    MP2 Hybrid          =          FALSE

   => Exchange Functionals <=

    1.0000   XC_MGGA_X_SCAN

   => Correlation Functionals <=

    1.0000   XC_MGGA_C_SCAN

   => LibXC Density Thresholds  <==

    XC_MGGA_C_SCAN:  1.00E-15 
    XC_MGGA_X_SCAN:  1.00E-15 

   => Molecular Quadrature <=

    Radial Scheme          =       TREUTLER
    Pruning Scheme         =           NONE
    Nuclear Scheme         =       TREUTLER

    Blocking Scheme        =         OCTREE
    BS radius alpha        =              1
    Pruning alpha          =              1
    Radial Points          =             75
    Spherical Points       =            302
    Total Points           =         197675
    Total Blocks           =           1539
    Max Points             =            256
    Max Functions          =            273
    Weights Tolerance      =       1.00E-15

   => Loading Basis Set <=

    Name: (AUG-CC-PVTZ AUX)
    Role: JKFIT
    Keyword: DF_BASIS_SCF
    atoms 1-2, 4-5, 7-8 entry H          line    70 file /home/gridsan/kfisher/.conda/envs/p4env/share/psi4/basis/aug-cc-pvtz-jkfit.gbs 
    atoms 3, 6, 9       entry O          line   286 file /home/gridsan/kfisher/.conda/envs/p4env/share/psi4/basis/aug-cc-pvtz-jkfit.gbs 

  ==> Integral Setup <==

  DFHelper Memory: AOs need 0.337 GiB; user supplied 10.922 GiB. Using in-core AOs.

  ==> MemDFJK: Density-Fitted J/K Matrices <==

    J tasked:                   Yes
    K tasked:                    No
    wK tasked:                   No
    OpenMP threads:               1
    Memory [MiB]:             11184
    Algorithm:                 Core
    Schwarz Cutoff:           1E-12
    Mask sparsity (%):       4.4712
    Fitting Condition:        1E-10

   => Auxiliary Basis Set <=

  Basis Set: (AUG-CC-PVTZ AUX)
    Blend: AUG-CC-PVTZ-JKFIT
    Number of shells: 174
    Number of basis functions: 588
    Number of Cartesian functions: 723
    Spherical Harmonics?: true
    Max angular momentum: 4

  Cached 100.0% of DFT collocation blocks in 3.047 [GiB].

  Minimum eigenvalue in the overlap matrix is 1.5488633849E-04.
  Reciprocal condition number of the overlap matrix is 1.4290565749E-05.
    Using symmetric orthogonalization.

  ==> Pre-Iterations <==

  SCF Guess: Superposition of Atomic Densities via on-the-fly atomic UHF (no occupation information).

   -------------------------
    Irrep   Nso     Nmo    
   -------------------------
     A        276     276 
   -------------------------
    Total     276     276
   -------------------------

  ==> Iterations <==

                           Total Energy        Delta E     RMS |[F,P]|

   @DF-RKS iter SAD:   -76.04805744986572   -7.60481e+01   0.00000e+00 
   @DF-RKS iter   1:   -76.24112914573479   -1.93072e-01   2.63919e-03 DIIS/ADIIS
   @DF-RKS iter   2:   -75.61343276256817    6.27696e-01   5.12176e-03 DIIS/ADIIS
   @DF-RKS iter   3:   -76.42709700953267   -8.13664e-01   2.28364e-04 DIIS/ADIIS
   @DF-RKS iter   4:   -76.42899719946892   -1.90019e-03   2.71250e-05 DIIS
   @DF-RKS iter   5:   -76.42901502331374   -1.78238e-05   7.72536e-06 DIIS
   @DF-RKS iter   6:   -76.42901658567399   -1.56236e-06   5.21625e-07 DIIS
   @DF-RKS iter   7:   -76.42901659207455   -6.40055e-09   1.49116e-07 DIIS
   @DF-RKS iter   8:   -76.42901659268237   -6.07827e-10   4.34862e-08 DIIS
   @DF-RKS iter   9:   -76.42901659274185   -5.94724e-11   2.16474e-09 DIIS
   @DF-RKS iter  10:   -76.42901659274206   -2.13163e-13   1.72202e-10 DIIS
   @DF-RKS iter  11:   -76.42901659274192    1.42109e-13   2.41590e-11 DIIS
  Energy and wave function converged.


  ==> Post-Iterations <==

   Electrons on quadrature grid:
      Ntotal   =    9.9999990468 ; deviation = -9.532e-07 

    Orbital Energies [Eh]
    ---------------------

    Doubly Occupied:                                                      

       1A    -18.970213     2A     -0.967751     3A     -0.498835  
       4A     -0.346727     5A     -0.276550  

    Virtual:                                                              

       6A     -0.013125     7A      0.029536     8A      0.034266  
       9A      0.046318    10A      0.059128    11A      0.072546  
      12A      0.091185    13A      0.104345    14A      0.117530  
      15A      0.120592    16A      0.127023    17A      0.144221  
      18A      0.148448    19A      0.164262    20A      0.173795  
      21A      0.182774    22A      0.186822    23A      0.197700  
      24A      0.217043    25A      0.229660    26A      0.251018  
      27A      0.275301    28A      0.291414    29A      0.299554  
      30A      0.309322    31A      0.316999    32A      0.322657  
      33A      0.341286    34A      0.346981    35A      0.349638  
      36A      0.359805    37A      0.370831    38A      0.373956  
      39A      0.379796    40A      0.393325    41A      0.412801  
      42A      0.427303    43A      0.444293    44A      0.453319  
      45A      0.467591    46A      0.506441    47A      0.535201  
      48A      0.556090    49A      0.579312    50A      0.627492  
      51A      0.642246    52A      0.644958    53A      0.675830  
      54A      0.697619    55A      0.727741    56A      0.734527  
      57A      0.751849    58A      0.765911    59A      0.787988  
      60A      0.798251    61A      0.801077    62A      0.815393  
      63A      0.825570    64A      0.831400    65A      0.847074  
      66A      0.855848    67A      0.860954    68A      0.866885  
      69A      0.873030    70A      0.883575    71A      0.891519  
      72A      0.901413    73A      0.917007    74A      0.939136  
      75A      0.948228    76A      0.957076    77A      0.980865  
      78A      0.992682    79A      1.000861    80A      1.011374  
      81A      1.019250    82A      1.031528    83A      1.047887  
      84A      1.072318    85A      1.091724    86A      1.108482  
      87A      1.116863    88A      1.119657    89A      1.139190  
      90A      1.161502    91A      1.187541    92A      1.189352  
      93A      1.215581    94A      1.218442    95A      1.255557  
      96A      1.270274    97A      1.277589    98A      1.328841  
      99A      1.351224   100A      1.393439   101A      1.416578  
     102A      1.448253   103A      1.464399   104A      1.477953  
     105A      1.498418   106A      1.528919   107A      1.563419  
     108A      1.596979   109A      1.624497   110A      1.642986  
     111A      1.682625   112A      1.703727   113A      1.718950  
     114A      1.746752   115A      1.781590   116A      1.790107  
     117A      1.806036   118A      1.826293   119A      1.846170  
     120A      1.869809   121A      1.897778   122A      1.920159  
     123A      1.977620   124A      1.997894   125A      2.022642  
     126A      2.064323   127A      2.130545   128A      2.200865  
     129A      2.234070   130A      2.268933   131A      2.283675  
     132A      2.354856   133A      2.392936   134A      2.429214  
     135A      2.444738   136A      2.463405   137A      2.477063  
     138A      2.524247   139A      2.550921   140A      2.569420  
     141A      2.584681   142A      2.598344   143A      2.610574  
     144A      2.634725   145A      2.649371   146A      2.686328  
     147A      2.708727   148A      2.720796   149A      2.724737  
     150A      2.771941   151A      2.840471   152A      2.867362  
     153A      2.878555   154A      2.945387   155A      3.005283  
     156A      3.028356   157A      3.080881   158A      3.093631  
     159A      3.196401   160A      3.212050   161A      3.238163  
     162A      3.289749   163A      3.363243   164A      3.410578  
     165A      3.467364   166A      3.519387   167A      3.551913  
     168A      3.584263   169A      3.600344   170A      3.612943  
     171A      3.714912   172A      3.728035   173A      3.832542  
     174A      3.922311   175A      4.016746   176A      4.027821  
     177A      4.131267   178A      4.165773   179A      4.275982  
     180A      4.354654   181A      4.386433   182A      4.400393  
     183A      4.445099   184A      4.455640   185A      4.469302  
     186A      4.524051   187A      4.553418   188A      4.579450  
     189A      4.607215   190A      4.640858   191A      4.682484  
     192A      4.748832   193A      4.754261   194A      4.863390  
     195A      4.896054   196A      4.912495   197A      4.959461  
     198A      4.978367   199A      5.017668   200A      5.020616  
     201A      5.037941   202A      5.094388   203A      5.107651  
     204A      5.135195   205A      5.193674   206A      5.302033  
     207A      5.347295   208A      5.447984   209A      5.461169  
     210A      5.546367   211A      5.564594   212A      5.592704  
     213A      5.612921   214A      5.642251   215A      5.790491  
     216A      5.805767   217A      5.875222   218A      5.937772  
     219A      6.092114   220A      6.159238   221A      6.220558  
     222A      6.322248   223A      6.432594   224A      6.527764  
     225A      6.588818   226A      6.641570   227A      6.684253  
     228A      6.726055   229A      6.831564   230A      6.942978  
     231A      6.967559   232A      6.989084   233A      7.018340  
     234A      7.049304   235A      7.098665   236A      7.122784  
     237A      7.328874   238A      7.511141   239A      7.585714  
     240A      7.717489   241A      7.727660   242A      7.816311  
     243A      7.917793   244A      8.016846   245A      8.077368  
     246A      8.179760   247A      8.265242   248A      8.361343  
     249A      8.412814   250A      8.452625   251A      8.624537  
     252A      8.787382   253A      8.872603   254A      9.016576  
     255A      9.485556   256A      9.652837   257A      9.856918  
     258A     10.034445   259A     10.066374   260A     10.158116  
     261A     10.291210   262A     10.333682   263A     10.510472  
     264A     11.134282   265A     11.438675   266A     11.690500  
     267A     12.014291   268A     12.158312   269A     12.536113  
     270A     13.509848   271A     13.849654   272A     13.943356  
     273A     14.327858   274A     15.093808   275A     64.852513  
     276A     67.492563  

    Final Occupation by Irrep:
              A 
    DOCC [     5 ]
    NA   [     5 ]
    NB   [     5 ]

  @DF-RKS Final Energy:   -76.42901659274192

   => Energetics <=

    Nuclear Repulsion Energy =              8.9059595904496440
    One-Electron Energy =                -122.5518505878364266
    Two-Electron Energy =                  46.4879422728214848
    DFT Exchange-Correlation Energy =      -9.2710676681766149
    Empirical Dispersion Energy =          -0.0000002000000000
    VV10 Nonlocal Energy =                  0.0000000000000000
    Total Energy =                        -76.4290165927419167

Computation Completed


Properties will be evaluated at   0.000000,   0.000000,   0.000000 [a0]

Properties computed using the SCF density matrix


 Multipole Moments:

 ------------------------------------------------------------------------------------
     Multipole            Electronic (a.u.)      Nuclear  (a.u.)        Total (a.u.)
 ------------------------------------------------------------------------------------

 L = 1.  Multiply by 2.5417464519 to convert [e a0] to [Debye]
 Dipole X            :         24.9267691          -25.2689251           -0.3421560
 Dipole Y            :         13.4174262          -14.0228121           -0.6053859
 Dipole Z            :         52.6431808          -52.6307100            0.0124709
 Magnitude           :                                                    0.6954986

 ------------------------------------------------------------------------------------

*** tstop() called on d-19-15-2 at Tue Sep 19 00:04:22 2023
Module time:
	user time   =      58.39 seconds =       0.97 minutes
	system time =       0.65 seconds =       0.01 minutes
	total time  =         63 seconds =       1.05 minutes
Total time:
	user time   =   74671.19 seconds =    1244.52 minutes
	system time =   38164.58 seconds =     636.08 minutes
	total time  =     126958 seconds =    2115.97 minutes

    Psi4 stopped on: Tuesday, 19 September 2023 12:04AM
    Psi4 wall time for execution: 0:01:02.82


    -----------------------------------------------------------------------
          Psi4: An Open-Source Ab Initio Electronic Structure Package
                               Psi4 1.7 release

                         Git: Rev {HEAD} 6ce35a5 


    D. G. A. Smith, L. A. Burns, A. C. Simmonett, R. M. Parrish,
    M. C. Schieber, R. Galvelis, P. Kraus, H. Kruse, R. Di Remigio,
    A. Alenaizan, A. M. James, S. Lehtola, J. P. Misiewicz, M. Scheurer,
    R. A. Shaw, J. B. Schriber, Y. Xie, Z. L. Glick, D. A. Sirianni,
    J. S. O'Brien, J. M. Waldrop, A. Kumar, E. G. Hohenstein,
    B. P. Pritchard, B. R. Brooks, H. F. Schaefer III, A. Yu. Sokolov,
    K. Patkowski, A. E. DePrince III, U. Bozkaya, R. A. King,
    F. A. Evangelista, J. M. Turney, T. D. Crawford, C. D. Sherrill,
    J. Chem. Phys. 152(18) 184108 (2020). https://doi.org/10.1063/5.0006002

                            Additional Code Authors
    E. T. Seidl, C. L. Janssen, E. F. Valeev, M. L. Leininger,
    J. F. Gonthier, R. M. Richard, H. R. McAlexander, M. Saitow, X. Wang,
    P. Verma, M. H. Lechner, A. Jiang, S. Behnle, A. G. Heide,
    M. F. Herbst, and D. L. Poole

             Previous Authors, Complete List of Code Contributors,
                       and Citations for Specific Modules
    https://github.com/psi4/psi4/blob/master/codemeta.json
    https://github.com/psi4/psi4/graphs/contributors
    http://psicode.org/psi4manual/master/introduction.html#citing-psifour

    -----------------------------------------------------------------------


    Psi4 started on: Sunday, 17 September 2023 12:48PM

    Process ID: 258105
    Host:       d-19-15-2
    PSIDATADIR: /home/gridsan/kfisher/.conda/envs/p4env/share/psi4
    Memory:     18.6 GiB
    Threads:    1
    
  ==> Input QCSchema <==

--------------------------------------------------------------------------
{'driver': 'energy',
 'extras': {'psiapi': True, 'wfn_qcvars_only': True},
 'id': None,
 'keywords': {'D_CONVERGENCE': 1e-10, 'E_CONVERGENCE': 1e-10, 'function_kwargs': {'dft_functional': 'scan-d3zero2b'}},
 'model': {'basis': 'aug-cc-pvtz', 'method': 'scf'},
 'molecule': {'atom_labels': ['', '', '', '', '', '', '', '', ''],
              'atomic_numbers': [1, 1, 8, 1, 1, 8, 1, 1, 8],
              'fix_com': True,
              'fix_orientation': True,
              'fix_symmetry': 'c1',
              'fragment_charges': [0.0, 0.0, 0.0],
              'fragment_multiplicities': [1, 1, 1],
              'fragments': [[0, 1, 2], [3, 4, 5], [6, 7, 8]],
              'geometry': [-1.677933350296368, -2.842119160981593, -5.701029823601644, -4.233833175021524,
                           -1.4586854732891477, -4.790487078592016, -2.419644826312225, -1.215250934910409,
                           -5.267399131702672, -1.2039356895081763, 0.155233385610075, -2.224915824529379,
                           -0.1769199771121353, 2.6197960192668477, -1.1207825243439258, 0.0019871415072251794,
                           0.7899298979083906, -1.0186858185322842, -3.5118867602915778, -1.1931166483919666,
                           4.123098493295892, -2.4228477042250023, 0.20334887412055455, 1.7746173135668604,
                           -3.91627726631707, -0.7058225344343512, 2.4000386531989424],
              'mass_numbers': [1, 1, 16, 1, 1, 16, 1, 1, 16],
              'masses': [1.00782503223, 1.00782503223, 15.99491461957, 1.00782503223, 1.00782503223, 15.99491461957,
                         1.00782503223, 1.00782503223, 15.99491461957],
              'molecular_charge': 0.0,
              'molecular_multiplicity': 1,
              'name': 'H6O3',
              'provenance': {'creator': 'QCElemental',
                             'routine': 'qcelemental.molparse.from_string',
                             'version': 'v0.25.1'},
              'real': [False, False, False, True, True, True, False, False, False],
              'schema_name': 'qcschema_molecule',
              'schema_version': 2,
              'symbols': ['H', 'H', 'O', 'H', 'H', 'O', 'H', 'H', 'O'],
              'validated': True},
 'protocols': {'stdout': True},
 'provenance': {'creator': 'QCElemental', 'routine': 'qcelemental.models.results', 'version': 'v0.25.1'},
 'schema_name': 'qcschema_input',
 'schema_version': 1}
--------------------------------------------------------------------------

Scratch directory: /home/gridsan/kfisher/scratch/

*** tstart() called on d-19-15-2
*** at Tue Sep 19 00:04:22 2023

   => Loading Basis Set <=

    Name: AUG-CC-PVTZ
    Role: ORBITAL
    Keyword: BASIS
    atoms 1-2, 4-5, 7-8 entry H          line    40 file /home/gridsan/kfisher/.conda/envs/p4env/share/psi4/basis/aug-cc-pvtz.gbs 
    atoms 3, 6, 9       entry O          line   331 file /home/gridsan/kfisher/.conda/envs/p4env/share/psi4/basis/aug-cc-pvtz.gbs 

   => SCAN-D3: Empirical Dispersion <=

    Grimme's -D3 (zero-damping) Dispersion Correction
    Grimme S.; Antony J.; Ehrlich S.; Krieg H. (2010), J. Chem. Phys., 132: 154104
    Parametrisation from:    J.G. Brandenburg, J. E. Bates, J. Sun, J.P. Perdew, Phys. Rev. B 94, 115144, 2016

        s6 =       1.000000
        s8 =       0.000000
       sr6 =       1.324000
    alpha6 =      14.000000
       sr8 =       1.000000


         ---------------------------------------------------------
                                   SCF
               by Justin Turney, Rob Parrish, Andy Simmonett
                          and Daniel G. A. Smith
                              RKS Reference
                        1 Threads,  19073 MiB Core
         ---------------------------------------------------------

  ==> Geometry <==

    Molecular point group: c1
    Full point group: C1

    Geometry (in Bohr), charge = 0, multiplicity = 1:

       Center              X                  Y                   Z               Mass       
    ------------   -----------------  -----------------  -----------------  -----------------
      Gh(H)          -1.677933350296    -2.842119160982    -5.701029823602     1.007825032230
      Gh(H)          -4.233833175022    -1.458685473289    -4.790487078592     1.007825032230
      Gh(O)          -2.419644826312    -1.215250934910    -5.267399131703    15.994914619570
         H           -1.203935689508     0.155233385610    -2.224915824529     1.007825032230
         H           -0.176919977112     2.619796019267    -1.120782524344     1.007825032230
         O            0.001987141507     0.789929897908    -1.018685818532    15.994914619570
      Gh(H)          -3.511886760292    -1.193116648392     4.123098493296     1.007825032230
      Gh(H)          -2.422847704225     0.203348874121     1.774617313567     1.007825032230
      Gh(O)          -3.916277266317    -0.705822534434     2.400038653199    15.994914619570

  Running in c1 symmetry.

  Rotational constants: A =      0.14835  B =      0.08691  C =      0.05725 [cm^-1]
  Rotational constants: A =   4447.28266  B =   2605.61218  C =   1716.44316 [MHz]
  Nuclear repulsion =    9.086387827632095

  Charge       = 0
  Multiplicity = 1
  Electrons    = 10
  Nalpha       = 5
  Nbeta        = 5

  ==> Algorithm <==

  SCF Algorithm Type is DF.
  DIIS enabled.
  MOM disabled.
  Fractional occupation disabled.
  Guess Type is SAD.
  Energy threshold   = 1.00e-10
  Density threshold  = 1.00e-10
  Integral threshold = 1.00e-12

  ==> Primary Basis <==

  Basis Set: AUG-CC-PVTZ
    Blend: AUG-CC-PVTZ
    Number of shells: 96
    Number of basis functions: 276
    Number of Cartesian functions: 315
    Spherical Harmonics?: true
    Max angular momentum: 3

  ==> DFT Potential <==

   => Composite Functional: SCAN-D3ZERO2B <= 

    SCAN Meta-GGA XC Functional
(10.1103/PhysRevLett.115.036402)
    J. Sun, A. Ruzsinszky, J. P. Perdew  Phys. Rev. Lett. 115, 036402, 2015


    Deriv               =              1
    GGA                 =           TRUE
    Meta                =           TRUE

    Exchange Hybrid     =          FALSE
    MP2 Hybrid          =          FALSE

   => Exchange Functionals <=

    1.0000   XC_MGGA_X_SCAN

   => Correlation Functionals <=

    1.0000   XC_MGGA_C_SCAN

   => LibXC Density Thresholds  <==

    XC_MGGA_C_SCAN:  1.00E-15 
    XC_MGGA_X_SCAN:  1.00E-15 

   => Molecular Quadrature <=

    Radial Scheme          =       TREUTLER
    Pruning Scheme         =           NONE
    Nuclear Scheme         =       TREUTLER

    Blocking Scheme        =         OCTREE
    BS radius alpha        =              1
    Pruning alpha          =              1
    Radial Points          =             75
    Spherical Points       =            302
    Total Points           =         197675
    Total Blocks           =           1539
    Max Points             =            256
    Max Functions          =            273
    Weights Tolerance      =       1.00E-15

   => Loading Basis Set <=

    Name: (AUG-CC-PVTZ AUX)
    Role: JKFIT
    Keyword: DF_BASIS_SCF
    atoms 1-2, 4-5, 7-8 entry H          line    70 file /home/gridsan/kfisher/.conda/envs/p4env/share/psi4/basis/aug-cc-pvtz-jkfit.gbs 
    atoms 3, 6, 9       entry O          line   286 file /home/gridsan/kfisher/.conda/envs/p4env/share/psi4/basis/aug-cc-pvtz-jkfit.gbs 

  ==> Integral Setup <==

  DFHelper Memory: AOs need 0.337 GiB; user supplied 10.922 GiB. Using in-core AOs.

  ==> MemDFJK: Density-Fitted J/K Matrices <==

    J tasked:                   Yes
    K tasked:                    No
    wK tasked:                   No
    OpenMP threads:               1
    Memory [MiB]:             11184
    Algorithm:                 Core
    Schwarz Cutoff:           1E-12
    Mask sparsity (%):       4.4712
    Fitting Condition:        1E-10

   => Auxiliary Basis Set <=

  Basis Set: (AUG-CC-PVTZ AUX)
    Blend: AUG-CC-PVTZ-JKFIT
    Number of shells: 174
    Number of basis functions: 588
    Number of Cartesian functions: 723
    Spherical Harmonics?: true
    Max angular momentum: 4

  Cached 100.0% of DFT collocation blocks in 3.047 [GiB].

  Minimum eigenvalue in the overlap matrix is 1.5488633849E-04.
  Reciprocal condition number of the overlap matrix is 1.4290565749E-05.
    Using symmetric orthogonalization.

  ==> Pre-Iterations <==

  SCF Guess: Superposition of Atomic Densities via on-the-fly atomic UHF (no occupation information).

   -------------------------
    Irrep   Nso     Nmo    
   -------------------------
     A        276     276 
   -------------------------
    Total     276     276
   -------------------------

  ==> Iterations <==

                           Total Energy        Delta E     RMS |[F,P]|

   @DF-RKS iter SAD:   -76.06002980639065   -7.60600e+01   0.00000e+00 
   @DF-RKS iter   1:   -76.24396236784703   -1.83933e-01   2.64646e-03 DIIS/ADIIS
   @DF-RKS iter   2:   -75.65510493935857    5.88857e-01   5.03029e-03 DIIS/ADIIS
   @DF-RKS iter   3:   -76.42934810232782   -7.74243e-01   2.29716e-04 DIIS/ADIIS
   @DF-RKS iter   4:   -76.43121689111875   -1.86879e-03   2.90870e-05 DIIS
   @DF-RKS iter   5:   -76.43123744900399   -2.05579e-05   8.22527e-06 DIIS
   @DF-RKS iter   6:   -76.43123919560155   -1.74660e-06   4.27597e-07 DIIS
   @DF-RKS iter   7:   -76.43123919989627   -4.29472e-09   1.07162e-07 DIIS
   @DF-RKS iter   8:   -76.43123920021772   -3.21450e-10   1.70791e-08 DIIS
   @DF-RKS iter   9:   -76.43123920022661   -8.89600e-12   2.94996e-09 DIIS
   @DF-RKS iter  10:   -76.43123920022681   -1.98952e-13   1.53848e-10 DIIS
   @DF-RKS iter  11:   -76.43123920022698   -1.70530e-13   1.51284e-11 DIIS
  Energy and wave function converged.


  ==> Post-Iterations <==

   Electrons on quadrature grid:
      Ntotal   =    9.9999954301 ; deviation = -4.570e-06 

    Orbital Energies [Eh]
    ---------------------

    Doubly Occupied:                                                      

       1A    -18.969321     2A     -0.978443     3A     -0.496574  
       4A     -0.357800     5A     -0.279094  

    Virtual:                                                              

       6A     -0.011579     7A      0.029625     8A      0.036810  
       9A      0.045504    10A      0.053627    11A      0.064775  
      12A      0.095343    13A      0.099819    14A      0.108146  
      15A      0.118415    16A      0.136489    17A      0.141124  
      18A      0.148862    19A      0.160798    20A      0.163081  
      21A      0.186568    22A      0.194801    23A      0.201816  
      24A      0.232236    25A      0.238623    26A      0.248247  
      27A      0.260329    28A      0.269568    29A      0.286074  
      30A      0.309703    31A      0.317348    32A      0.317546  
      33A      0.330225    34A      0.344619    35A      0.350001  
      36A      0.359653    37A      0.362551    38A      0.372832  
      39A      0.373995    40A      0.390653    41A      0.406666  
      42A      0.410043    43A      0.425220    44A      0.445340  
      45A      0.463397    46A      0.513882    47A      0.536196  
      48A      0.542707    49A      0.596757    50A      0.621655  
      51A      0.637108    52A      0.653533    53A      0.682389  
      54A      0.688389    55A      0.701617    56A      0.728826  
      57A      0.741075    58A      0.754164    59A      0.776055  
      60A      0.784920    61A      0.788107    62A      0.800041  
      63A      0.817256    64A      0.833205    65A      0.838138  
      66A      0.847212    67A      0.855264    68A      0.866777  
      69A      0.880430    70A      0.891023    71A      0.900715  
      72A      0.907426    73A      0.916735    74A      0.932810  
      75A      0.940942    76A      0.950707    77A      0.956103  
      78A      0.982323    79A      0.993211    80A      1.006846  
      81A      1.018654    82A      1.031563    83A      1.045234  
      84A      1.060857    85A      1.084405    86A      1.096076  
      87A      1.124336    88A      1.132026    89A      1.148354  
      90A      1.159269    91A      1.169185    92A      1.178004  
      93A      1.201459    94A      1.222460    95A      1.243655  
      96A      1.250182    97A      1.273355    98A      1.291618  
      99A      1.327739   100A      1.346268   101A      1.393312  
     102A      1.408738   103A      1.450388   104A      1.465576  
     105A      1.487874   106A      1.515397   107A      1.532267  
     108A      1.554044   109A      1.607778   110A      1.634524  
     111A      1.654684   112A      1.670902   113A      1.714712  
     114A      1.742772   115A      1.769514   116A      1.783136  
     117A      1.800495   118A      1.818449   119A      1.840815  
     120A      1.866471   121A      1.890131   122A      1.907966  
     123A      1.929474   124A      1.950770   125A      2.012800  
     126A      2.149035   127A      2.192806   128A      2.258187  
     129A      2.285606   130A      2.295965   131A      2.350481  
     132A      2.385861   133A      2.409860   134A      2.439849  
     135A      2.457254   136A      2.503452   137A      2.508241  
     138A      2.523281   139A      2.536440   140A      2.557521  
     141A      2.573873   142A      2.612320   143A      2.615441  
     144A      2.631109   145A      2.638437   146A      2.647379  
     147A      2.673896   148A      2.733041   149A      2.755704  
     150A      2.774802   151A      2.810253   152A      2.829100  
     153A      2.860503   154A      2.910258   155A      2.964183  
     156A      3.006058   157A      3.066012   158A      3.107102  
     159A      3.169658   160A      3.197004   161A      3.227354  
     162A      3.246951   163A      3.259163   164A      3.338442  
     165A      3.413417   166A      3.484153   167A      3.486107  
     168A      3.508290   169A      3.586271   170A      3.612127  
     171A      3.697987   172A      3.742872   173A      3.880775  
     174A      3.952045   175A      4.011390   176A      4.075306  
     177A      4.191845   178A      4.235551   179A      4.278302  
     180A      4.325461   181A      4.375961   182A      4.397337  
     183A      4.408577   184A      4.480608   185A      4.502718  
     186A      4.519140   187A      4.554446   188A      4.584010  
     189A      4.626679   190A      4.654710   191A      4.682634  
     192A      4.731046   193A      4.750664   194A      4.860800  
     195A      4.872323   196A      4.911609   197A      4.932453  
     198A      4.975862   199A      5.020764   200A      5.103393  
     201A      5.117783   202A      5.145178   203A      5.155971  
     204A      5.201624   205A      5.223862   206A      5.277962  
     207A      5.346271   208A      5.413353   209A      5.436193  
     210A      5.474799   211A      5.592972   212A      5.608974  
     213A      5.648911   214A      5.659400   215A      5.713022  
     216A      5.757262   217A      5.796758   218A      5.969843  
     219A      5.982465   220A      6.080069   221A      6.243749  
     222A      6.317672   223A      6.353653   224A      6.414154  
     225A      6.569587   226A      6.654210   227A      6.682535  
     228A      6.769478   229A      6.826719   230A      6.925158  
     231A      6.975982   232A      7.037860   233A      7.079584  
     234A      7.136708   235A      7.183486   236A      7.223304  
     237A      7.325456   238A      7.522146   239A      7.680651  
     240A      7.743902   241A      7.842356   242A      7.851602  
     243A      7.939257   244A      7.963815   245A      8.189258  
     246A      8.221157   247A      8.278459   248A      8.356094  
     249A      8.378594   250A      8.458847   251A      8.609977  
     252A      8.689049   253A      8.722759   254A      8.956557  
     255A      9.254580   256A      9.784879   257A      9.899647  
     258A      9.993297   259A     10.038794   260A     10.147252  
     261A     10.229390   262A     10.384058   263A     10.465603  
     264A     11.041476   265A     11.364654   266A     11.866884  
     267A     11.876916   268A     12.132723   269A     12.216503  
     270A     13.377049   271A     13.742203   272A     13.963854  
     273A     14.217779   274A     16.251879   275A     64.682454  
     276A     65.531055  

    Final Occupation by Irrep:
              A 
    DOCC [     5 ]
    NA   [     5 ]
    NB   [     5 ]

  @DF-RKS Final Energy:   -76.43123920022698

   => Energetics <=

    Nuclear Repulsion Energy =              9.0863878276320946
    One-Electron Energy =                -122.8627519891069255
    Two-Electron Energy =                  46.6348805617147590
    DFT Exchange-Correlation Energy =      -9.2897554704669076
    Empirical Dispersion Energy =          -0.0000001300000000
    VV10 Nonlocal Energy =                  0.0000000000000000
    Total Energy =                        -76.4312392002269831

Computation Completed


Properties will be evaluated at   0.000000,   0.000000,   0.000000 [a0]

Properties computed using the SCF density matrix


 Multipole Moments:

 ------------------------------------------------------------------------------------
     Multipole            Electronic (a.u.)      Nuclear  (a.u.)        Total (a.u.)
 ------------------------------------------------------------------------------------

 L = 1.  Multiply by 2.5417464519 to convert [e a0] to [Debye]
 Dipole X            :          0.9179013           -1.3649585           -0.4470572
 Dipole Y            :         -8.7113335            9.0944686            0.3831350
 Dipole Z            :         11.0724785          -11.4951849           -0.4227064
 Magnitude           :                                                    0.7247988

 ------------------------------------------------------------------------------------

*** tstop() called on d-19-15-2 at Tue Sep 19 00:05:22 2023
Module time:
	user time   =      57.86 seconds =       0.96 minutes
	system time =       0.49 seconds =       0.01 minutes
	total time  =         60 seconds =       1.00 minutes
Total time:
	user time   =   74729.12 seconds =    1245.49 minutes
	system time =   38165.07 seconds =     636.08 minutes
	total time  =     127018 seconds =    2116.97 minutes

    Psi4 stopped on: Tuesday, 19 September 2023 12:05AM
    Psi4 wall time for execution: 0:01:00.02


    -----------------------------------------------------------------------
          Psi4: An Open-Source Ab Initio Electronic Structure Package
                               Psi4 1.7 release

                         Git: Rev {HEAD} 6ce35a5 


    D. G. A. Smith, L. A. Burns, A. C. Simmonett, R. M. Parrish,
    M. C. Schieber, R. Galvelis, P. Kraus, H. Kruse, R. Di Remigio,
    A. Alenaizan, A. M. James, S. Lehtola, J. P. Misiewicz, M. Scheurer,
    R. A. Shaw, J. B. Schriber, Y. Xie, Z. L. Glick, D. A. Sirianni,
    J. S. O'Brien, J. M. Waldrop, A. Kumar, E. G. Hohenstein,
    B. P. Pritchard, B. R. Brooks, H. F. Schaefer III, A. Yu. Sokolov,
    K. Patkowski, A. E. DePrince III, U. Bozkaya, R. A. King,
    F. A. Evangelista, J. M. Turney, T. D. Crawford, C. D. Sherrill,
    J. Chem. Phys. 152(18) 184108 (2020). https://doi.org/10.1063/5.0006002

                            Additional Code Authors
    E. T. Seidl, C. L. Janssen, E. F. Valeev, M. L. Leininger,
    J. F. Gonthier, R. M. Richard, H. R. McAlexander, M. Saitow, X. Wang,
    P. Verma, M. H. Lechner, A. Jiang, S. Behnle, A. G. Heide,
    M. F. Herbst, and D. L. Poole

             Previous Authors, Complete List of Code Contributors,
                       and Citations for Specific Modules
    https://github.com/psi4/psi4/blob/master/codemeta.json
    https://github.com/psi4/psi4/graphs/contributors
    http://psicode.org/psi4manual/master/introduction.html#citing-psifour

    -----------------------------------------------------------------------


    Psi4 started on: Sunday, 17 September 2023 12:48PM

    Process ID: 258105
    Host:       d-19-15-2
    PSIDATADIR: /home/gridsan/kfisher/.conda/envs/p4env/share/psi4
    Memory:     18.6 GiB
    Threads:    1
    
  ==> Input QCSchema <==

--------------------------------------------------------------------------
{'driver': 'energy',
 'extras': {'psiapi': True, 'wfn_qcvars_only': True},
 'id': None,
 'keywords': {'D_CONVERGENCE': 1e-10, 'E_CONVERGENCE': 1e-10, 'function_kwargs': {'dft_functional': 'scan-d3zero2b'}},
 'model': {'basis': 'aug-cc-pvtz', 'method': 'scf'},
 'molecule': {'atom_labels': ['', '', '', '', '', '', '', '', ''],
              'atomic_numbers': [1, 1, 8, 1, 1, 8, 1, 1, 8],
              'fix_com': True,
              'fix_orientation': True,
              'fix_symmetry': 'c1',
              'fragment_charges': [0.0, 0.0, 0.0],
              'fragment_multiplicities': [1, 1, 1],
              'fragments': [[0, 1, 2], [3, 4, 5], [6, 7, 8]],
              'geometry': [-1.677933350296368, -2.842119160981593, -5.701029823601644, -4.233833175021524,
                           -1.4586854732891477, -4.790487078592016, -2.419644826312225, -1.215250934910409,
                           -5.267399131702672, -1.2039356895081763, 0.155233385610075, -2.224915824529379,
                           -0.1769199771121353, 2.6197960192668477, -1.1207825243439258, 0.0019871415072251794,
                           0.7899298979083906, -1.0186858185322842, -3.5118867602915778, -1.1931166483919666,
                           4.123098493295892, -2.4228477042250023, 0.20334887412055455, 1.7746173135668604,
                           -3.91627726631707, -0.7058225344343512, 2.4000386531989424],
              'mass_numbers': [1, 1, 16, 1, 1, 16, 1, 1, 16],
              'masses': [1.00782503223, 1.00782503223, 15.99491461957, 1.00782503223, 1.00782503223, 15.99491461957,
                         1.00782503223, 1.00782503223, 15.99491461957],
              'molecular_charge': 0.0,
              'molecular_multiplicity': 1,
              'name': 'H6O3',
              'provenance': {'creator': 'QCElemental',
                             'routine': 'qcelemental.molparse.from_string',
                             'version': 'v0.25.1'},
              'real': [False, False, False, True, True, True, True, True, True],
              'schema_name': 'qcschema_molecule',
              'schema_version': 2,
              'symbols': ['H', 'H', 'O', 'H', 'H', 'O', 'H', 'H', 'O'],
              'validated': True},
 'protocols': {'stdout': True},
 'provenance': {'creator': 'QCElemental', 'routine': 'qcelemental.models.results', 'version': 'v0.25.1'},
 'schema_name': 'qcschema_input',
 'schema_version': 1}
--------------------------------------------------------------------------

Scratch directory: /home/gridsan/kfisher/scratch/

*** tstart() called on d-19-15-2
*** at Tue Sep 19 00:05:22 2023

   => Loading Basis Set <=

    Name: AUG-CC-PVTZ
    Role: ORBITAL
    Keyword: BASIS
    atoms 1-2, 4-5, 7-8 entry H          line    40 file /home/gridsan/kfisher/.conda/envs/p4env/share/psi4/basis/aug-cc-pvtz.gbs 
    atoms 3, 6, 9       entry O          line   331 file /home/gridsan/kfisher/.conda/envs/p4env/share/psi4/basis/aug-cc-pvtz.gbs 

   => SCAN-D3: Empirical Dispersion <=

    Grimme's -D3 (zero-damping) Dispersion Correction
    Grimme S.; Antony J.; Ehrlich S.; Krieg H. (2010), J. Chem. Phys., 132: 154104
    Parametrisation from:    J.G. Brandenburg, J. E. Bates, J. Sun, J.P. Perdew, Phys. Rev. B 94, 115144, 2016

        s6 =       1.000000
        s8 =       0.000000
       sr6 =       1.324000
    alpha6 =      14.000000
       sr8 =       1.000000


         ---------------------------------------------------------
                                   SCF
               by Justin Turney, Rob Parrish, Andy Simmonett
                          and Daniel G. A. Smith
                              RKS Reference
                        1 Threads,  19073 MiB Core
         ---------------------------------------------------------

  ==> Geometry <==

    Molecular point group: c1
    Full point group: C1

    Geometry (in Bohr), charge = 0, multiplicity = 1:

       Center              X                  Y                   Z               Mass       
    ------------   -----------------  -----------------  -----------------  -----------------
      Gh(H)          -1.677933350296    -2.842119160982    -5.701029823602     1.007825032230
      Gh(H)          -4.233833175022    -1.458685473289    -4.790487078592     1.007825032230
      Gh(O)          -2.419644826312    -1.215250934910    -5.267399131703    15.994914619570
         H           -1.203935689508     0.155233385610    -2.224915824529     1.007825032230
         H           -0.176919977112     2.619796019267    -1.120782524344     1.007825032230
         O            0.001987141507     0.789929897908    -1.018685818532    15.994914619570
         H           -3.511886760292    -1.193116648392     4.123098493296     1.007825032230
         H           -2.422847704225     0.203348874121     1.774617313567     1.007825032230
         O           -3.916277266317    -0.705822534434     2.400038653199    15.994914619570

  Running in c1 symmetry.

  Rotational constants: A =      0.14835  B =      0.08691  C =      0.05725 [cm^-1]
  Rotational constants: A =   4447.28266  B =   2605.61218  C =   1716.44316 [MHz]
  Nuclear repulsion =   36.810620819896123

  Charge       = 0
  Multiplicity = 1
  Electrons    = 20
  Nalpha       = 10
  Nbeta        = 10

  ==> Algorithm <==

  SCF Algorithm Type is DF.
  DIIS enabled.
  MOM disabled.
  Fractional occupation disabled.
  Guess Type is SAD.
  Energy threshold   = 1.00e-10
  Density threshold  = 1.00e-10
  Integral threshold = 1.00e-12

  ==> Primary Basis <==

  Basis Set: AUG-CC-PVTZ
    Blend: AUG-CC-PVTZ
    Number of shells: 96
    Number of basis functions: 276
    Number of Cartesian functions: 315
    Spherical Harmonics?: true
    Max angular momentum: 3

  ==> DFT Potential <==

   => Composite Functional: SCAN-D3ZERO2B <= 

    SCAN Meta-GGA XC Functional
(10.1103/PhysRevLett.115.036402)
    J. Sun, A. Ruzsinszky, J. P. Perdew  Phys. Rev. Lett. 115, 036402, 2015


    Deriv               =              1
    GGA                 =           TRUE
    Meta                =           TRUE

    Exchange Hybrid     =          FALSE
    MP2 Hybrid          =          FALSE

   => Exchange Functionals <=

    1.0000   XC_MGGA_X_SCAN

   => Correlation Functionals <=

    1.0000   XC_MGGA_C_SCAN

   => LibXC Density Thresholds  <==

    XC_MGGA_C_SCAN:  1.00E-15 
    XC_MGGA_X_SCAN:  1.00E-15 

   => Molecular Quadrature <=

    Radial Scheme          =       TREUTLER
    Pruning Scheme         =           NONE
    Nuclear Scheme         =       TREUTLER

    Blocking Scheme        =         OCTREE
    BS radius alpha        =              1
    Pruning alpha          =              1
    Radial Points          =             75
    Spherical Points       =            302
    Total Points           =         197675
    Total Blocks           =           1539
    Max Points             =            256
    Max Functions          =            273
    Weights Tolerance      =       1.00E-15

   => Loading Basis Set <=

    Name: (AUG-CC-PVTZ AUX)
    Role: JKFIT
    Keyword: DF_BASIS_SCF
    atoms 1-2, 4-5, 7-8 entry H          line    70 file /home/gridsan/kfisher/.conda/envs/p4env/share/psi4/basis/aug-cc-pvtz-jkfit.gbs 
    atoms 3, 6, 9       entry O          line   286 file /home/gridsan/kfisher/.conda/envs/p4env/share/psi4/basis/aug-cc-pvtz-jkfit.gbs 

  ==> Integral Setup <==

  DFHelper Memory: AOs need 0.337 GiB; user supplied 10.922 GiB. Using in-core AOs.

  ==> MemDFJK: Density-Fitted J/K Matrices <==

    J tasked:                   Yes
    K tasked:                    No
    wK tasked:                   No
    OpenMP threads:               1
    Memory [MiB]:             11184
    Algorithm:                 Core
    Schwarz Cutoff:           1E-12
    Mask sparsity (%):       4.4712
    Fitting Condition:        1E-10

   => Auxiliary Basis Set <=

  Basis Set: (AUG-CC-PVTZ AUX)
    Blend: AUG-CC-PVTZ-JKFIT
    Number of shells: 174
    Number of basis functions: 588
    Number of Cartesian functions: 723
    Spherical Harmonics?: true
    Max angular momentum: 4

  Cached 100.0% of DFT collocation blocks in 3.047 [GiB].

  Minimum eigenvalue in the overlap matrix is 1.5488633849E-04.
  Reciprocal condition number of the overlap matrix is 1.4290565749E-05.
    Using symmetric orthogonalization.

  ==> Pre-Iterations <==

  SCF Guess: Superposition of Atomic Densities via on-the-fly atomic UHF (no occupation information).

   -------------------------
    Irrep   Nso     Nmo    
   -------------------------
     A        276     276 
   -------------------------
    Total     276     276
   -------------------------

  ==> Iterations <==

                           Total Energy        Delta E     RMS |[F,P]|

   @DF-RKS iter SAD:  -152.17019850260792   -1.52170e+02   0.00000e+00 
   @DF-RKS iter   1:  -152.51694722948014   -3.46749e-01   3.64827e-03 DIIS/ADIIS
   @DF-RKS iter   2:  -151.53947650394923    9.77471e-01   6.64465e-03 DIIS/ADIIS
   @DF-RKS iter   3:  -152.86623758891244   -1.32676e+00   3.10641e-04 DIIS/ADIIS
   @DF-RKS iter   4:  -152.86795773013048   -1.72014e-03   2.42662e-04 DIIS/ADIIS
   @DF-RKS iter   5:  -152.86943384029809   -1.47611e-03   4.71996e-05 DIIS
   @DF-RKS iter   6:  -152.86949148075377   -5.76405e-05   8.48668e-06 DIIS
   @DF-RKS iter   7:  -152.86949359639596   -2.11564e-06   1.01630e-06 DIIS
   @DF-RKS iter   8:  -152.86949362377013   -2.73742e-08   2.34791e-07 DIIS
   @DF-RKS iter   9:  -152.86949362536359   -1.59346e-09   3.16580e-08 DIIS
   @DF-RKS iter  10:  -152.86949362539573   -3.21450e-11   4.44131e-09 DIIS
   @DF-RKS iter  11:  -152.86949362539576   -2.84217e-14   9.88014e-10 DIIS
   @DF-RKS iter  12:  -152.86949362539599   -2.27374e-13   1.20803e-10 DIIS
   @DF-RKS iter  13:  -152.86949362539607   -8.52651e-14   2.90400e-11 DIIS
  Energy and wave function converged.


  ==> Post-Iterations <==

   Electrons on quadrature grid:
      Ntotal   =   20.0000007415 ; deviation = 7.415e-07 

    Orbital Energies [Eh]
    ---------------------

    Doubly Occupied:                                                      

       1A    -18.991983     2A    -18.947843     3A     -1.002690  
       4A     -0.953199     5A     -0.518150     6A     -0.477798  
       7A     -0.381887     8A     -0.338836     9A     -0.301171  
      10A     -0.259723  

    Virtual:                                                              

      11A     -0.021953    12A      0.015513    13A      0.027600  
      14A      0.046135    15A      0.051246    16A      0.056964  
      17A      0.089075    18A      0.096141    19A      0.100715  
      20A      0.104342    21A      0.117686    22A      0.136412  
      23A      0.144674    24A      0.156166    25A      0.161293  
      26A      0.163870    27A      0.183150    28A      0.194573  
      29A      0.199918    30A      0.211912    31A      0.216566  
      32A      0.241034    33A      0.256785    34A      0.271087  
      35A      0.279075    36A      0.284993    37A      0.287602  
      38A      0.305458    39A      0.326739    40A      0.342762  
      41A      0.346485    42A      0.349222    43A      0.356146  
      44A      0.358234    45A      0.371791    46A      0.382079  
      47A      0.400277    48A      0.411529    49A      0.414422  
      50A      0.450153    51A      0.480965    52A      0.494957  
      53A      0.510770    54A      0.541326    55A      0.578888  
      56A      0.585892    57A      0.614531    58A      0.637406  
      59A      0.643046    60A      0.652402    61A      0.667564  
      62A      0.694093    63A      0.706050    64A      0.735600  
      65A      0.748814    66A      0.756176    67A      0.759849  
      68A      0.769553    69A      0.787114    70A      0.801382  
      71A      0.808387    72A      0.822589    73A      0.836465  
      74A      0.851553    75A      0.859208    76A      0.873019  
      77A      0.894376    78A      0.896283    79A      0.904198  
      80A      0.908853    81A      0.918685    82A      0.923541  
      83A      0.933112    84A      0.944959    85A      0.963768  
      86A      0.988199    87A      0.999873    88A      1.005299  
      89A      1.029644    90A      1.049812    91A      1.061455  
      92A      1.080350    93A      1.099405    94A      1.117412  
      95A      1.133493    96A      1.139521    97A      1.158422  
      98A      1.166260    99A      1.171540   100A      1.184165  
     101A      1.188222   102A      1.207153   103A      1.248432  
     104A      1.275611   105A      1.311195   106A      1.339644  
     107A      1.370982   108A      1.385387   109A      1.403578  
     110A      1.412979   111A      1.433466   112A      1.446717  
     113A      1.491407   114A      1.505710   115A      1.528981  
     116A      1.547662   117A      1.563485   118A      1.595522  
     119A      1.631265   120A      1.700384   121A      1.741379  
     122A      1.766862   123A      1.779012   124A      1.783859  
     125A      1.824080   126A      1.830698   127A      1.873274  
     128A      1.904312   129A      1.930973   130A      2.006980  
     131A      2.077453   132A      2.118132   133A      2.136887  
     134A      2.170721   135A      2.203257   136A      2.223966  
     137A      2.233038   138A      2.260244   139A      2.312697  
     140A      2.313584   141A      2.354072   142A      2.372747  
     143A      2.395050   144A      2.405033   145A      2.449046  
     146A      2.483321   147A      2.489408   148A      2.518612  
     149A      2.530377   150A      2.553726   151A      2.581944  
     152A      2.605771   153A      2.626164   154A      2.639096  
     155A      2.699165   156A      2.709452   157A      2.722144  
     158A      2.746378   159A      2.782371   160A      2.807529  
     161A      2.835526   162A      2.843630   163A      2.875873  
     164A      2.970751   165A      2.997936   166A      3.099028  
     167A      3.168430   168A      3.194635   169A      3.240377  
     170A      3.331116   171A      3.483711   172A      3.531730  
     173A      3.584200   174A      3.693000   175A      3.696454  
     176A      3.758069   177A      3.877500   178A      3.896808  
     179A      3.968792   180A      3.978661   181A      4.044369  
     182A      4.109420   183A      4.118428   184A      4.167969  
     185A      4.205169   186A      4.238881   187A      4.256784  
     188A      4.288622   189A      4.303646   190A      4.312387  
     191A      4.328605   192A      4.369103   193A      4.385520  
     194A      4.414021   195A      4.448972   196A      4.521193  
     197A      4.528022   198A      4.554828   199A      4.592727  
     200A      4.629141   201A      4.656451   202A      4.685020  
     203A      4.735877   204A      4.783923   205A      4.884158  
     206A      4.973020   207A      4.979881   208A      4.999855  
     209A      5.031040   210A      5.077310   211A      5.110455  
     212A      5.136900   213A      5.164862   214A      5.191080  
     215A      5.203961   216A      5.226766   217A      5.270128  
     218A      5.290055   219A      5.424933   220A      5.483840  
     221A      5.541230   222A      5.599245   223A      5.634642  
     224A      5.730278   225A      5.754825   226A      5.982210  
     227A      6.040295   228A      6.242372   229A      6.276570  
     230A      6.309396   231A      6.344381   232A      6.516681  
     233A      6.545007   234A      6.654577   235A      6.675663  
     236A      6.720602   237A      6.842670   238A      6.892837  
     239A      6.923736   240A      6.961797   241A      6.977400  
     242A      6.989011   243A      7.028962   244A      7.047382  
     245A      7.071483   246A      7.105485   247A      7.117154  
     248A      7.158857   249A      7.248611   250A      7.349212  
     251A      7.467724   252A      7.647710   253A      7.687695  
     254A      7.736740   255A      7.751297   256A      7.841651  
     257A      7.945033   258A      8.209607   259A      8.265816  
     260A      8.366516   261A      8.465424   262A      8.603398  
     263A      8.681855   264A      8.714861   265A      9.890315  
     266A     10.029725   267A     10.135200   268A     10.372992  
     269A     11.033041   270A     11.867102   271A     12.125308  
     272A     13.367642   273A     13.952083   274A     15.203398  
     275A     16.218033   276A     64.668311  

    Final Occupation by Irrep:
              A 
    DOCC [    10 ]
    NA   [    10 ]
    NB   [    10 ]

  @DF-RKS Final Energy:  -152.86949362539607

   => Energetics <=

    Nuclear Repulsion Energy =             36.8106208198961227
    One-Electron Energy =                -282.9907155467469693
    Two-Electron Energy =                 111.8953380797891981
    DFT Exchange-Correlation Energy =     -18.5845529083344339
    Empirical Dispersion Energy =          -0.0001840700000000
    VV10 Nonlocal Energy =                  0.0000000000000000
    Total Energy =                       -152.8694936253961032

Computation Completed


Properties will be evaluated at   0.000000,   0.000000,   0.000000 [a0]

Properties computed using the SCF density matrix


 Multipole Moments:

 ------------------------------------------------------------------------------------
     Multipole            Electronic (a.u.)      Nuclear  (a.u.)        Total (a.u.)
 ------------------------------------------------------------------------------------

 L = 1.  Multiply by 2.5417464519 to convert [e a0] to [Debye]
 Dipole X            :         38.9357952          -38.6299111            0.3058841
 Dipole Y            :         -1.9027299            2.4581205            0.5553906
 Dipole Z            :        -13.8271592           13.6028401           -0.2243191
 Magnitude           :                                                    0.6725644

 ------------------------------------------------------------------------------------

*** tstop() called on d-19-15-2 at Tue Sep 19 00:06:49 2023
Module time:
	user time   =      67.08 seconds =       1.12 minutes
	system time =       2.64 seconds =       0.04 minutes
	total time  =         87 seconds =       1.45 minutes
Total time:
	user time   =   74796.27 seconds =    1246.60 minutes
	system time =   38167.71 seconds =     636.13 minutes
	total time  =     127105 seconds =    2118.42 minutes

    Psi4 stopped on: Tuesday, 19 September 2023 12:06AM
    Psi4 wall time for execution: 0:01:27.18


    -----------------------------------------------------------------------
          Psi4: An Open-Source Ab Initio Electronic Structure Package
                               Psi4 1.7 release

                         Git: Rev {HEAD} 6ce35a5 


    D. G. A. Smith, L. A. Burns, A. C. Simmonett, R. M. Parrish,
    M. C. Schieber, R. Galvelis, P. Kraus, H. Kruse, R. Di Remigio,
    A. Alenaizan, A. M. James, S. Lehtola, J. P. Misiewicz, M. Scheurer,
    R. A. Shaw, J. B. Schriber, Y. Xie, Z. L. Glick, D. A. Sirianni,
    J. S. O'Brien, J. M. Waldrop, A. Kumar, E. G. Hohenstein,
    B. P. Pritchard, B. R. Brooks, H. F. Schaefer III, A. Yu. Sokolov,
    K. Patkowski, A. E. DePrince III, U. Bozkaya, R. A. King,
    F. A. Evangelista, J. M. Turney, T. D. Crawford, C. D. Sherrill,
    J. Chem. Phys. 152(18) 184108 (2020). https://doi.org/10.1063/5.0006002

                            Additional Code Authors
    E. T. Seidl, C. L. Janssen, E. F. Valeev, M. L. Leininger,
    J. F. Gonthier, R. M. Richard, H. R. McAlexander, M. Saitow, X. Wang,
    P. Verma, M. H. Lechner, A. Jiang, S. Behnle, A. G. Heide,
    M. F. Herbst, and D. L. Poole

             Previous Authors, Complete List of Code Contributors,
                       and Citations for Specific Modules
    https://github.com/psi4/psi4/blob/master/codemeta.json
    https://github.com/psi4/psi4/graphs/contributors
    http://psicode.org/psi4manual/master/introduction.html#citing-psifour

    -----------------------------------------------------------------------


    Psi4 started on: Sunday, 17 September 2023 12:48PM

    Process ID: 258105
    Host:       d-19-15-2
    PSIDATADIR: /home/gridsan/kfisher/.conda/envs/p4env/share/psi4
    Memory:     18.6 GiB
    Threads:    1
    
  ==> Input QCSchema <==

--------------------------------------------------------------------------
{'driver': 'energy',
 'extras': {'psiapi': True, 'wfn_qcvars_only': True},
 'id': None,
 'keywords': {'D_CONVERGENCE': 1e-10, 'E_CONVERGENCE': 1e-10, 'function_kwargs': {'dft_functional': 'scan-d3zero2b'}},
 'model': {'basis': 'aug-cc-pvtz', 'method': 'scf'},
 'molecule': {'atom_labels': ['', '', '', '', '', '', '', '', ''],
              'atomic_numbers': [1, 1, 8, 1, 1, 8, 1, 1, 8],
              'fix_com': True,
              'fix_orientation': True,
              'fix_symmetry': 'c1',
              'fragment_charges': [0.0, 0.0, 0.0],
              'fragment_multiplicities': [1, 1, 1],
              'fragments': [[0, 1, 2], [3, 4, 5], [6, 7, 8]],
              'geometry': [-1.677933350296368, -2.842119160981593, -5.701029823601644, -4.233833175021524,
                           -1.4586854732891477, -4.790487078592016, -2.419644826312225, -1.215250934910409,
                           -5.267399131702672, -1.2039356895081763, 0.155233385610075, -2.224915824529379,
                           -0.1769199771121353, 2.6197960192668477, -1.1207825243439258, 0.0019871415072251794,
                           0.7899298979083906, -1.0186858185322842, -3.5118867602915778, -1.1931166483919666,
                           4.123098493295892, -2.4228477042250023, 0.20334887412055455, 1.7746173135668604,
                           -3.91627726631707, -0.7058225344343512, 2.4000386531989424],
              'mass_numbers': [1, 1, 16, 1, 1, 16, 1, 1, 16],
              'masses': [1.00782503223, 1.00782503223, 15.99491461957, 1.00782503223, 1.00782503223, 15.99491461957,
                         1.00782503223, 1.00782503223, 15.99491461957],
              'molecular_charge': 0.0,
              'molecular_multiplicity': 1,
              'name': 'H6O3',
              'provenance': {'creator': 'QCElemental',
                             'routine': 'qcelemental.molparse.from_string',
                             'version': 'v0.25.1'},
              'real': [True, True, True, False, False, False, True, True, True],
              'schema_name': 'qcschema_molecule',
              'schema_version': 2,
              'symbols': ['H', 'H', 'O', 'H', 'H', 'O', 'H', 'H', 'O'],
              'validated': True},
 'protocols': {'stdout': True},
 'provenance': {'creator': 'QCElemental', 'routine': 'qcelemental.models.results', 'version': 'v0.25.1'},
 'schema_name': 'qcschema_input',
 'schema_version': 1}
--------------------------------------------------------------------------

Scratch directory: /home/gridsan/kfisher/scratch/

*** tstart() called on d-19-15-2
*** at Tue Sep 19 00:06:49 2023

   => Loading Basis Set <=

    Name: AUG-CC-PVTZ
    Role: ORBITAL
    Keyword: BASIS
    atoms 1-2, 4-5, 7-8 entry H          line    40 file /home/gridsan/kfisher/.conda/envs/p4env/share/psi4/basis/aug-cc-pvtz.gbs 
    atoms 3, 6, 9       entry O          line   331 file /home/gridsan/kfisher/.conda/envs/p4env/share/psi4/basis/aug-cc-pvtz.gbs 

   => SCAN-D3: Empirical Dispersion <=

    Grimme's -D3 (zero-damping) Dispersion Correction
    Grimme S.; Antony J.; Ehrlich S.; Krieg H. (2010), J. Chem. Phys., 132: 154104
    Parametrisation from:    J.G. Brandenburg, J. E. Bates, J. Sun, J.P. Perdew, Phys. Rev. B 94, 115144, 2016

        s6 =       1.000000
        s8 =       0.000000
       sr6 =       1.324000
    alpha6 =      14.000000
       sr8 =       1.000000


         ---------------------------------------------------------
                                   SCF
               by Justin Turney, Rob Parrish, Andy Simmonett
                          and Daniel G. A. Smith
                              RKS Reference
                        1 Threads,  19073 MiB Core
         ---------------------------------------------------------

  ==> Geometry <==

    Molecular point group: c1
    Full point group: C1

    Geometry (in Bohr), charge = 0, multiplicity = 1:

       Center              X                  Y                   Z               Mass       
    ------------   -----------------  -----------------  -----------------  -----------------
         H           -1.677933350296    -2.842119160982    -5.701029823602     1.007825032230
         H           -4.233833175022    -1.458685473289    -4.790487078592     1.007825032230
         O           -2.419644826312    -1.215250934910    -5.267399131703    15.994914619570
      Gh(H)          -1.203935689508     0.155233385610    -2.224915824529     1.007825032230
      Gh(H)          -0.176919977112     2.619796019267    -1.120782524344     1.007825032230
      Gh(O)           0.001987141507     0.789929897908    -1.018685818532    15.994914619570
         H           -3.511886760292    -1.193116648392     4.123098493296     1.007825032230
         H           -2.422847704225     0.203348874121     1.774617313567     1.007825032230
         O           -3.916277266317    -0.705822534434     2.400038653199    15.994914619570

  Running in c1 symmetry.

  Rotational constants: A =      0.14835  B =      0.08691  C =      0.05725 [cm^-1]
  Rotational constants: A =   4447.28266  B =   2605.61218  C =   1716.44316 [MHz]
  Nuclear repulsion =   30.551515857745400

  Charge       = 0
  Multiplicity = 1
  Electrons    = 20
  Nalpha       = 10
  Nbeta        = 10

  ==> Algorithm <==

  SCF Algorithm Type is DF.
  DIIS enabled.
  MOM disabled.
  Fractional occupation disabled.
  Guess Type is SAD.
  Energy threshold   = 1.00e-10
  Density threshold  = 1.00e-10
  Integral threshold = 1.00e-12

  ==> Primary Basis <==

  Basis Set: AUG-CC-PVTZ
    Blend: AUG-CC-PVTZ
    Number of shells: 96
    Number of basis functions: 276
    Number of Cartesian functions: 315
    Spherical Harmonics?: true
    Max angular momentum: 3

  ==> DFT Potential <==

   => Composite Functional: SCAN-D3ZERO2B <= 

    SCAN Meta-GGA XC Functional
(10.1103/PhysRevLett.115.036402)
    J. Sun, A. Ruzsinszky, J. P. Perdew  Phys. Rev. Lett. 115, 036402, 2015


    Deriv               =              1
    GGA                 =           TRUE
    Meta                =           TRUE

    Exchange Hybrid     =          FALSE
    MP2 Hybrid          =          FALSE

   => Exchange Functionals <=

    1.0000   XC_MGGA_X_SCAN

   => Correlation Functionals <=

    1.0000   XC_MGGA_C_SCAN

   => LibXC Density Thresholds  <==

    XC_MGGA_C_SCAN:  1.00E-15 
    XC_MGGA_X_SCAN:  1.00E-15 

   => Molecular Quadrature <=

    Radial Scheme          =       TREUTLER
    Pruning Scheme         =           NONE
    Nuclear Scheme         =       TREUTLER

    Blocking Scheme        =         OCTREE
    BS radius alpha        =              1
    Pruning alpha          =              1
    Radial Points          =             75
    Spherical Points       =            302
    Total Points           =         197675
    Total Blocks           =           1539
    Max Points             =            256
    Max Functions          =            273
    Weights Tolerance      =       1.00E-15

   => Loading Basis Set <=

    Name: (AUG-CC-PVTZ AUX)
    Role: JKFIT
    Keyword: DF_BASIS_SCF
    atoms 1-2, 4-5, 7-8 entry H          line    70 file /home/gridsan/kfisher/.conda/envs/p4env/share/psi4/basis/aug-cc-pvtz-jkfit.gbs 
    atoms 3, 6, 9       entry O          line   286 file /home/gridsan/kfisher/.conda/envs/p4env/share/psi4/basis/aug-cc-pvtz-jkfit.gbs 

  ==> Integral Setup <==

  DFHelper Memory: AOs need 0.337 GiB; user supplied 10.922 GiB. Using in-core AOs.

  ==> MemDFJK: Density-Fitted J/K Matrices <==

    J tasked:                   Yes
    K tasked:                    No
    wK tasked:                   No
    OpenMP threads:               1
    Memory [MiB]:             11184
    Algorithm:                 Core
    Schwarz Cutoff:           1E-12
    Mask sparsity (%):       4.4712
    Fitting Condition:        1E-10

   => Auxiliary Basis Set <=

  Basis Set: (AUG-CC-PVTZ AUX)
    Blend: AUG-CC-PVTZ-JKFIT
    Number of shells: 174
    Number of basis functions: 588
    Number of Cartesian functions: 723
    Spherical Harmonics?: true
    Max angular momentum: 4

  Cached 100.0% of DFT collocation blocks in 3.047 [GiB].

  Minimum eigenvalue in the overlap matrix is 1.5488633849E-04.
  Reciprocal condition number of the overlap matrix is 1.4290565749E-05.
    Using symmetric orthogonalization.

  ==> Pre-Iterations <==

  SCF Guess: Superposition of Atomic Densities via on-the-fly atomic UHF (no occupation information).

   -------------------------
    Irrep   Nso     Nmo    
   -------------------------
     A        276     276 
   -------------------------
    Total     276     276
   -------------------------

  ==> Iterations <==

                           Total Energy        Delta E     RMS |[F,P]|

   @DF-RKS iter SAD:  -152.10551311380667   -1.52106e+02   0.00000e+00 
   @DF-RKS iter   1:  -152.48858220099586   -3.83069e-01   3.72530e-03 DIIS/ADIIS
   @DF-RKS iter   2:  -151.29569087560958    1.19289e+00   7.12663e-03 DIIS/ADIIS
   @DF-RKS iter   3:  -152.85844922426847   -1.56276e+00   2.88224e-04 DIIS/ADIIS
   @DF-RKS iter   4:  -152.86126536999066   -2.81615e-03   9.45721e-05 DIIS
   @DF-RKS iter   5:  -152.86137376365056   -1.08394e-04   6.86730e-05 DIIS
   @DF-RKS iter   6:  -152.86149508434366   -1.21321e-04   8.04109e-06 DIIS
   @DF-RKS iter   7:  -152.86149682498359   -1.74064e-06   6.29163e-07 DIIS
   @DF-RKS iter   8:  -152.86149683534748   -1.03639e-08   2.14684e-07 DIIS
   @DF-RKS iter   9:  -152.86149683678039   -1.43291e-09   3.83629e-08 DIIS
   @DF-RKS iter  10:  -152.86149683682365   -4.32578e-11   1.50975e-09 DIIS
   @DF-RKS iter  11:  -152.86149683682399   -3.41061e-13   2.46310e-10 DIIS
   @DF-RKS iter  12:  -152.86149683682439   -3.97904e-13   6.93392e-11 DIIS
  Energy and wave function converged.


  ==> Post-Iterations <==

   Electrons on quadrature grid:
      Ntotal   =   20.0000043106 ; deviation = 4.311e-06 

    Orbital Energies [Eh]
    ---------------------

    Doubly Occupied:                                                      

       1A    -18.968455     2A    -18.967115     3A     -0.972192  
       4A     -0.964585     5A     -0.495599     6A     -0.493804  
       7A     -0.353288     8A     -0.344008     9A     -0.276863  
      10A     -0.273303  

    Virtual:                                                              

      11A     -0.017064    12A      0.001224    13A      0.034173  
      14A      0.035885    15A      0.053996    16A      0.061901  
      17A      0.088151    18A      0.089767    19A      0.102429  
      20A      0.112183    21A      0.119159    22A      0.124036  
      23A      0.139334    24A      0.152863    25A      0.165943  
      26A      0.168203    27A      0.175705    28A      0.184798  
      29A      0.197255    30A      0.204819    31A      0.231556  
      32A      0.236447    33A      0.247036    34A      0.261919  
      35A      0.268413    36A      0.291858    37A      0.312094  
      38A      0.322145    39A      0.329086    40A      0.336086  
      41A      0.344265    42A      0.347541    43A      0.359851  
      44A      0.364661    45A      0.377339    46A      0.387834  
      47A      0.396724    48A      0.419773    49A      0.426658  
      50A      0.444575    51A      0.486659    52A      0.496029  
      53A      0.519753    54A      0.545184    55A      0.558315  
      56A      0.605162    57A      0.626035    58A      0.631118  
      59A      0.643651    60A      0.646462    61A      0.659281  
      62A      0.698171    63A      0.703092    64A      0.731442  
      65A      0.739603    66A      0.760328    67A      0.772118  
      68A      0.790301    69A      0.799126    70A      0.810739  
      71A      0.816963    72A      0.832632    73A      0.843074  
      74A      0.849792    75A      0.862179    76A      0.876200  
      77A      0.876269    78A      0.899558    79A      0.903017  
      80A      0.910307    81A      0.926704    82A      0.929667  
      83A      0.940502    84A      0.959179    85A      0.972979  
      86A      0.986058    87A      0.992982    88A      1.009515  
      89A      1.037685    90A      1.049131    91A      1.065574  
      92A      1.092500    93A      1.102358    94A      1.107506  
      95A      1.126341    96A      1.142822    97A      1.162824  
      98A      1.172984    99A      1.186969   100A      1.200207  
     101A      1.209125   102A      1.235189   103A      1.253588  
     104A      1.304911   105A      1.309760   106A      1.366668  
     107A      1.390287   108A      1.409416   109A      1.423123  
     110A      1.463970   111A      1.475958   112A      1.482940  
     113A      1.500322   114A      1.522981   115A      1.572725  
     116A      1.601953   117A      1.614950   118A      1.652232  
     119A      1.658860   120A      1.702483   121A      1.710398  
     122A      1.763701   123A      1.769089   124A      1.804671  
     125A      1.855453   126A      1.876250   127A      1.891532  
     128A      1.951853   129A      1.974685   130A      2.001423  
     131A      2.020353   132A      2.102414   133A      2.110586  
     134A      2.179421   135A      2.189906   136A      2.195872  
     137A      2.224794   138A      2.254050   139A      2.269941  
     140A      2.276850   141A      2.321599   142A      2.358620  
     143A      2.387762   144A      2.395058   145A      2.406730  
     146A      2.460449   147A      2.476389   148A      2.542484  
     149A      2.567721   150A      2.578285   151A      2.590444  
     152A      2.607053   153A      2.635113   154A      2.656797  
     155A      2.679771   156A      2.707773   157A      2.768101  
     158A      2.787421   159A      2.797200   160A      2.805810  
     161A      2.852350   162A      2.898919   163A      2.941504  
     164A      2.990102   165A      3.021968   166A      3.113804  
     167A      3.215563   168A      3.262997   169A      3.395534  
     170A      3.448081   171A      3.495613   172A      3.556551  
     173A      3.611196   174A      3.649052   175A      3.707214  
     176A      3.815579   177A      3.876483   178A      3.896614  
     179A      3.931186   180A      3.969721   181A      4.029778  
     182A      4.115428   183A      4.131383   184A      4.154450  
     185A      4.172719   186A      4.262535   187A      4.271001  
     188A      4.279471   189A      4.286338   190A      4.328235  
     191A      4.373755   192A      4.393118   193A      4.431957  
     194A      4.445523   195A      4.450932   196A      4.480258  
     197A      4.523309   198A      4.581809   199A      4.639761  
     200A      4.695589   201A      4.718806   202A      4.720134  
     203A      4.778508   204A      4.857515   205A      4.978371  
     206A      4.996646   207A      5.011459   208A      5.020443  
     209A      5.055196   210A      5.071904   211A      5.095317  
     212A      5.154539   213A      5.192104   214A      5.216684  
     215A      5.282106   216A      5.286206   217A      5.347287  
     218A      5.426557   219A      5.443409   220A      5.544957  
     221A      5.601249   222A      5.673939   223A      5.710487  
     224A      5.846976   225A      5.961641   226A      6.026706  
     227A      6.093563   228A      6.278221   229A      6.300346  
     230A      6.403601   231A      6.498894   232A      6.507330  
     233A      6.579853   234A      6.657109   235A      6.662314  
     236A      6.726792   237A      6.843514   238A      6.912183  
     239A      6.947297   240A      6.959212   241A      6.972007  
     242A      6.985176   243A      7.032911   244A      7.047879  
     245A      7.070949   246A      7.087531   247A      7.094192  
     248A      7.121469   249A      7.207275   250A      7.344482  
     251A      7.377348   252A      7.583719   253A      7.642573  
     254A      7.691241   255A      7.701372   256A      7.778615  
     257A      7.944823   258A      8.200333   259A      8.240436  
     260A      8.422975   261A      8.461792   262A      8.523145  
     263A      8.823635   264A      9.158886   265A      9.855813  
     266A      9.984066   267A     10.128619   268A     10.292679  
     269A     11.205565   270A     11.961246   271A     12.291150  
     272A     13.638337   273A     14.039341   274A     15.026984  
     275A     15.249947   276A     67.102896  

    Final Occupation by Irrep:
              A 
    DOCC [    10 ]
    NA   [    10 ]
    NB   [    10 ]

  @DF-RKS Final Energy:  -152.86149683682439

   => Energetics <=

    Nuclear Repulsion Energy =             30.5515158577454002
    One-Electron Energy =                -270.6047372356949836
    Two-Electron Energy =                 105.7442713423648684
    DFT Exchange-Correlation Energy =     -18.5523786612396719
    Empirical Dispersion Energy =          -0.0001681400000000
    VV10 Nonlocal Energy =                  0.0000000000000000
    Total Energy =                       -152.8614968368243865

Computation Completed


[...]
    DFT Exchange-Correlation Energy =      -9.2896734707006114
    Empirical Dispersion Energy =          -0.0000001300000000
    VV10 Nonlocal Energy =                  0.0000000000000000
    Total Energy =                        -76.4312020626092306

Computation Completed


Properties will be evaluated at   0.000000,   0.000000,   0.000000 [a0]

Properties computed using the SCF density matrix


 Multipole Moments:

 ------------------------------------------------------------------------------------
     Multipole            Electronic (a.u.)      Nuclear  (a.u.)        Total (a.u.)
 ------------------------------------------------------------------------------------

 L = 1.  Multiply by 2.5417464519 to convert [e a0] to [Debye]
 Dipole X            :          0.9179809           -1.3649585           -0.4469777
 Dipole Y            :         -8.7112862            9.0944686            0.3831824
 Dipole Z            :         11.0725854          -11.4951849           -0.4225995
 Magnitude           :                                                    0.7247124

 ------------------------------------------------------------------------------------

*** tstop() called on d-19-15-2 at Tue Sep 19 00:16:06 2023
Module time:
	user time   =      24.17 seconds =       0.40 minutes
	system time =       0.22 seconds =       0.00 minutes
	total time  =         27 seconds =       0.45 minutes
Total time:
	user time   =   75246.09 seconds =    1254.10 minutes
	system time =   38179.40 seconds =     636.32 minutes
	total time  =     127662 seconds =    2127.70 minutes

    Psi4 stopped on: Tuesday, 19 September 2023 12:16AM
    Psi4 wall time for execution: 0:00:26.58


    -----------------------------------------------------------------------
          Psi4: An Open-Source Ab Initio Electronic Structure Package
                               Psi4 1.7 release

                         Git: Rev {HEAD} 6ce35a5 


    D. G. A. Smith, L. A. Burns, A. C. Simmonett, R. M. Parrish,
    M. C. Schieber, R. Galvelis, P. Kraus, H. Kruse, R. Di Remigio,
    A. Alenaizan, A. M. James, S. Lehtola, J. P. Misiewicz, M. Scheurer,
    R. A. Shaw, J. B. Schriber, Y. Xie, Z. L. Glick, D. A. Sirianni,
    J. S. O'Brien, J. M. Waldrop, A. Kumar, E. G. Hohenstein,
    B. P. Pritchard, B. R. Brooks, H. F. Schaefer III, A. Yu. Sokolov,
    K. Patkowski, A. E. DePrince III, U. Bozkaya, R. A. King,
    F. A. Evangelista, J. M. Turney, T. D. Crawford, C. D. Sherrill,
    J. Chem. Phys. 152(18) 184108 (2020). https://doi.org/10.1063/5.0006002

                            Additional Code Authors
    E. T. Seidl, C. L. Janssen, E. F. Valeev, M. L. Leininger,
    J. F. Gonthier, R. M. Richard, H. R. McAlexander, M. Saitow, X. Wang,
    P. Verma, M. H. Lechner, A. Jiang, S. Behnle, A. G. Heide,
    M. F. Herbst, and D. L. Poole

             Previous Authors, Complete List of Code Contributors,
                       and Citations for Specific Modules
    https://github.com/psi4/psi4/blob/master/codemeta.json
    https://github.com/psi4/psi4/graphs/contributors
    http://psicode.org/psi4manual/master/introduction.html#citing-psifour

    -----------------------------------------------------------------------


    Psi4 started on: Sunday, 17 September 2023 12:48PM

    Process ID: 258105
    Host:       d-19-15-2
    PSIDATADIR: /home/gridsan/kfisher/.conda/envs/p4env/share/psi4
    Memory:     18.6 GiB
    Threads:    1
    
  ==> Input QCSchema <==

--------------------------------------------------------------------------
{'driver': 'energy',
 'extras': {'psiapi': True, 'wfn_qcvars_only': True},
 'id': None,
 'keywords': {'D_CONVERGENCE': 1e-10, 'E_CONVERGENCE': 1e-10, 'function_kwargs': {'dft_functional': 'scan-d3zero2b'}},
 'model': {'basis': 'aug-cc-pvtz', 'method': 'scf'},
 'molecule': {'atom_labels': ['', '', '', '', '', ''],
              'atomic_numbers': [1, 1, 8, 1, 1, 8],
              'fix_com': True,
              'fix_orientation': True,
              'fix_symmetry': 'c1',
              'fragment_charges': [0.0, 0.0],
              'fragment_multiplicities': [1, 1],
              'fragments': [[0, 1, 2], [3, 4, 5]],
              'geometry': [-1.2039356895081763, 0.155233385610075, -2.224915824529379, -0.1769199771121353,
                           2.6197960192668477, -1.1207825243439258, 0.0019871415072251794, 0.7899298979083906,
                           -1.0186858185322842, -3.5118867602915778, -1.1931166483919666, 4.123098493295892,
                           -2.4228477042250023, 0.20334887412055455, 1.7746173135668604, -3.91627726631707,
                           -0.7058225344343512, 2.4000386531989424],
              'mass_numbers': [1, 1, 16, 1, 1, 16],
              'masses': [1.00782503223, 1.00782503223, 15.99491461957, 1.00782503223, 1.00782503223, 15.99491461957],
              'molecular_charge': 0.0,
              'molecular_multiplicity': 1,
              'name': 'H4O2',
              'provenance': {'creator': 'QCElemental',
                             'routine': 'qcelemental.molparse.from_string',
                             'version': 'v0.25.1'},
              'real': [True, True, True, True, True, True],
              'schema_name': 'qcschema_molecule',
              'schema_version': 2,
              'symbols': ['H', 'H', 'O', 'H', 'H', 'O'],
              'validated': True},
 'protocols': {'stdout': True},
 'provenance': {'creator': 'QCElemental', 'routine': 'qcelemental.models.results', 'version': 'v0.25.1'},
 'schema_name': 'qcschema_input',
 'schema_version': 1}
--------------------------------------------------------------------------

Scratch directory: /home/gridsan/kfisher/scratch/

*** tstart() called on d-19-15-2
*** at Tue Sep 19 00:16:06 2023

   => Loading Basis Set <=

    Name: AUG-CC-PVTZ
    Role: ORBITAL
    Keyword: BASIS
    atoms 1-2, 4-5 entry H          line    40 file /home/gridsan/kfisher/.conda/envs/p4env/share/psi4/basis/aug-cc-pvtz.gbs 
    atoms 3, 6     entry O          line   331 file /home/gridsan/kfisher/.conda/envs/p4env/share/psi4/basis/aug-cc-pvtz.gbs 

   => SCAN-D3: Empirical Dispersion <=

    Grimme's -D3 (zero-damping) Dispersion Correction
    Grimme S.; Antony J.; Ehrlich S.; Krieg H. (2010), J. Chem. Phys., 132: 154104
    Parametrisation from:    J.G. Brandenburg, J. E. Bates, J. Sun, J.P. Perdew, Phys. Rev. B 94, 115144, 2016

        s6 =       1.000000
        s8 =       0.000000
       sr6 =       1.324000
    alpha6 =      14.000000
       sr8 =       1.000000


         ---------------------------------------------------------
                                   SCF
               by Justin Turney, Rob Parrish, Andy Simmonett
                          and Daniel G. A. Smith
                              RKS Reference
                        1 Threads,  19073 MiB Core
         ---------------------------------------------------------

  ==> Geometry <==

    Molecular point group: c1
    Full point group: C1

    Geometry (in Bohr), charge = 0, multiplicity = 1:

       Center              X                  Y                   Z               Mass       
    ------------   -----------------  -----------------  -----------------  -----------------
         H           -1.203935689508     0.155233385610    -2.224915824529     1.007825032230
         H           -0.176919977112     2.619796019267    -1.120782524344     1.007825032230
         O            0.001987141507     0.789929897908    -1.018685818532    15.994914619570
         H           -3.511886760292    -1.193116648392     4.123098493296     1.007825032230
         H           -2.422847704225     0.203348874121     1.774617313567     1.007825032230
         O           -3.916277266317    -0.705822534434     2.400038653199    15.994914619570

  Running in c1 symmetry.

  Rotational constants: A =      1.67303  B =      0.15214  C =      0.14267 [cm^-1]
  Rotational constants: A =  50156.05034  B =   4560.96627  C =   4277.06476 [MHz]
  Nuclear repulsion =   36.810620819896123

  Charge       = 0
  Multiplicity = 1
  Electrons    = 20
  Nalpha       = 10
  Nbeta        = 10

  ==> Algorithm <==

  SCF Algorithm Type is DF.
  DIIS enabled.
  MOM disabled.
  Fractional occupation disabled.
  Guess Type is SAD.
  Energy threshold   = 1.00e-10
  Density threshold  = 1.00e-10
  Integral threshold = 1.00e-12

  ==> Primary Basis <==

  Basis Set: AUG-CC-PVTZ
    Blend: AUG-CC-PVTZ
    Number of shells: 64
    Number of basis functions: 184
    Number of Cartesian functions: 210
    Spherical Harmonics?: true
    Max angular momentum: 3

  ==> DFT Potential <==

   => Composite Functional: SCAN-D3ZERO2B <= 

    SCAN Meta-GGA XC Functional
(10.1103/PhysRevLett.115.036402)
    J. Sun, A. Ruzsinszky, J. P. Perdew  Phys. Rev. Lett. 115, 036402, 2015


    Deriv               =              1
    GGA                 =           TRUE
    Meta                =           TRUE

    Exchange Hybrid     =          FALSE
    MP2 Hybrid          =          FALSE

   => Exchange Functionals <=

    1.0000   XC_MGGA_X_SCAN

   => Correlation Functionals <=

    1.0000   XC_MGGA_C_SCAN

   => LibXC Density Thresholds  <==

    XC_MGGA_C_SCAN:  1.00E-15 
    XC_MGGA_X_SCAN:  1.00E-15 

   => Molecular Quadrature <=

    Radial Scheme          =       TREUTLER
    Pruning Scheme         =           NONE
    Nuclear Scheme         =       TREUTLER

    Blocking Scheme        =         OCTREE
    BS radius alpha        =              1
    Pruning alpha          =              1
    Radial Points          =             75
    Spherical Points       =            302
    Total Points           =         132429
    Total Blocks           =           1040
    Max Points             =            256
    Max Functions          =            184
    Weights Tolerance      =       1.00E-15

   => Loading Basis Set <=

    Name: (AUG-CC-PVTZ AUX)
    Role: JKFIT
    Keyword: DF_BASIS_SCF
    atoms 1-2, 4-5 entry H          line    70 file /home/gridsan/kfisher/.conda/envs/p4env/share/psi4/basis/aug-cc-pvtz-jkfit.gbs 
    atoms 3, 6     entry O          line   286 file /home/gridsan/kfisher/.conda/envs/p4env/share/psi4/basis/aug-cc-pvtz-jkfit.gbs 

  ==> Integral Setup <==

  DFHelper Memory: AOs need 0.106 GiB; user supplied 12.446 GiB. Using in-core AOs.

  ==> MemDFJK: Density-Fitted J/K Matrices <==

    J tasked:                   Yes
    K tasked:                    No
    wK tasked:                   No
    OpenMP threads:               1
    Memory [MiB]:             12744
    Algorithm:                 Core
    Schwarz Cutoff:           1E-12
    Mask sparsity (%):       0.8034
    Fitting Condition:        1E-10

   => Auxiliary Basis Set <=

  Basis Set: (AUG-CC-PVTZ AUX)
    Blend: AUG-CC-PVTZ-JKFIT
    Number of shells: 116
    Number of basis functions: 392
    Number of Cartesian functions: 482
    Spherical Harmonics?: true
    Max angular momentum: 4

  Cached 100.0% of DFT collocation blocks in 1.524 [GiB].

  Minimum eigenvalue in the overlap matrix is 2.4026189637E-04.
  Reciprocal condition number of the overlap matrix is 2.5817139531E-05.
    Using symmetric orthogonalization.

  ==> Pre-Iterations <==

  SCF Guess: Superposition of Atomic Densities via on-the-fly atomic UHF (no occupation information).

   -------------------------
    Irrep   Nso     Nmo    
   -------------------------
     A        184     184 
   -------------------------
    Total     184     184
   -------------------------

  ==> Iterations <==

                           Total Energy        Delta E     RMS |[F,P]|

   @DF-RKS iter SAD:  -152.17019994267264   -1.52170e+02   0.00000e+00 
   @DF-RKS iter   1:  -152.51692883614066   -3.46729e-01   5.47229e-03 DIIS/ADIIS
   @DF-RKS iter   2:  -151.54429425364651    9.72635e-01   9.95364e-03 DIIS/ADIIS
   @DF-RKS iter   3:  -152.86704998385645   -1.32276e+00   3.97355e-04 DIIS/ADIIS
   @DF-RKS iter   4:  -152.86802188852573   -9.71905e-04   3.51011e-04 DIIS/ADIIS
   @DF-RKS iter   5:  -152.86939389352005   -1.37200e-03   6.94829e-05 DIIS
   @DF-RKS iter   6:  -152.86944933958824   -5.54461e-05   1.25868e-05 DIIS
   @DF-RKS iter   7:  -152.86945140618369   -2.06660e-06   1.47788e-06 DIIS
   @DF-RKS iter   8:  -152.86945143169237   -2.55087e-08   3.37841e-07 DIIS
   @DF-RKS iter   9:  -152.86945143315870   -1.46633e-09   4.57608e-08 DIIS
   @DF-RKS iter  10:  -152.86945143318874   -3.00417e-11   6.48591e-09 DIIS
   @DF-RKS iter  11:  -152.86945143318900   -2.55795e-13   1.37207e-09 DIIS
   @DF-RKS iter  12:  -152.86945143318917   -1.70530e-13   1.69138e-10 DIIS
   @DF-RKS iter  13:  -152.86945143318940   -2.27374e-13   4.27179e-11 DIIS
  Energy and wave function converged.


  ==> Post-Iterations <==

   Electrons on quadrature grid:
      Ntotal   =   19.9999991539 ; deviation = -8.461e-07 

    Orbital Energies [Eh]
    ---------------------

    Doubly Occupied:                                                      

       1A    -18.992044     2A    -18.947851     3A     -1.002713  
       4A     -0.953208     5A     -0.518173     6A     -0.477794  
       7A     -0.381910     8A     -0.338856     9A     -0.301190  
      10A     -0.259733  

    Virtual:                                                              

      11A     -0.021739    12A      0.015784    13A      0.030514  
      14A      0.055153    15A      0.081379    16A      0.090909  
      17A      0.104516    18A      0.116972    19A      0.133133  
      20A      0.143105    21A      0.152709    22A      0.168702  
      23A      0.177385    24A      0.187035    25A      0.194879  
      26A      0.208306    27A      0.249094    28A      0.260709  
      29A      0.278078    30A      0.300926    31A      0.330596  
      32A      0.336873    33A      0.338836    34A      0.354080  
      35A      0.363778    36A      0.369209    37A      0.380430  
      38A      0.465841    39A      0.489031    40A      0.506837  
      41A      0.543244    42A      0.571791    43A      0.603231  
      44A      0.616899    45A      0.631734    46A      0.646704  
      47A      0.663813    48A      0.697688    49A      0.719119  
      50A      0.740131    51A      0.758561    52A      0.786323  
      53A      0.805552    54A      0.816531    55A      0.840024  
      56A      0.858179    57A      0.865378    58A      0.884588  
      59A      0.890285    60A      0.915533    61A      0.930395  
      62A      0.954518    63A      0.958704    64A      0.966935  
      65A      0.985720    66A      1.034026    67A      1.055976  
      68A      1.069498    69A      1.094258    70A      1.125406  
      71A      1.155776    72A      1.167951    73A      1.184527  
      74A      1.187121    75A      1.227977    76A      1.312191  
      77A      1.348158    78A      1.384398    79A      1.415952  
      80A      1.442356    81A      1.464663    82A      1.504146  
      83A      1.536822    84A      1.557514    85A      1.665317  
      86A      1.688426    87A      1.747318    88A      1.826270  
      89A      1.874305    90A      1.897313    91A      2.036066  
      92A      2.088593    93A      2.106760    94A      2.130499  
      95A      2.158116    96A      2.185901    97A      2.211754  
      98A      2.222287    99A      2.276689   100A      2.296311  
     101A      2.331846   102A      2.352489   103A      2.367958  
     104A      2.431866   105A      2.448463   106A      2.487300  
     107A      2.512532   108A      2.554832   109A      2.614005  
     110A      2.626524   111A      2.679737   112A      2.704318  
     113A      2.721791   114A      2.750971   115A      2.802226  
     116A      2.857455   117A      3.513662   118A      3.606865  
     119A      3.656393   120A      3.752512   121A      3.852737  
     122A      3.878322   123A      3.931841   124A      3.987368  
     125A      4.077464   126A      4.102550   127A      4.141760  
     128A      4.188851   129A      4.202668   130A      4.237498  
     131A      4.267761   132A      4.277301   133A      4.284017  
     134A      4.298830   135A      4.357612   136A      4.379909  
     137A      4.424548   138A      4.461926   139A      4.570367  
     140A      4.644855   141A      4.675914   142A      4.780439  
     143A      4.972688   144A      4.994957   145A      5.035487  
     146A      5.072437   147A      5.118509   148A      5.153411  
     149A      5.161302   150A      5.183739   151A      5.275924  
     152A      5.474113   153A      5.518979   154A      5.559881  
     155A      5.937886   156A      5.993554   157A      6.249492  
     158A      6.298550   159A      6.437589   160A      6.508893  
     161A      6.648877   162A      6.665293   163A      6.826572  
     164A      6.881547   165A      6.905331   166A      6.944434  
     167A      6.965659   168A      6.981159   169A      7.012946  
     170A      7.020884   171A      7.048343   172A      7.084755  
     173A      7.102426   174A      7.180894   175A      7.290964  
     176A      7.384890   177A      7.574722   178A      7.636554  
     179A      7.724204   180A      7.741753   181A      8.447373  
     182A      8.545226   183A     15.140614   184A     15.346373  

    Final Occupation by Irrep:
              A 
    DOCC [    10 ]
    NA   [    10 ]
    NB   [    10 ]

  @DF-RKS Final Energy:  -152.86945143318940

   => Energetics <=

    Nuclear Repulsion Energy =             36.8106208198961227
    One-Electron Energy =                -282.9902832026191390
    Two-Electron Energy =                 111.8948598747243750
    DFT Exchange-Correlation Energy =     -18.5844648551907596
    Empirical Dispersion Energy =          -0.0001840700000000
    VV10 Nonlocal Energy =                  0.0000000000000000
    Total Energy =                       -152.8694514331893970

Computation Completed


Properties will be evaluated at   0.000000,   0.000000,   0.000000 [a0]

Properties computed using the SCF density matrix


 Multipole Moments:

 ------------------------------------------------------------------------------------
     Multipole            Electronic (a.u.)      Nuclear  (a.u.)        Total (a.u.)
 ------------------------------------------------------------------------------------

 L = 1.  Multiply by 2.5417464519 to convert [e a0] to [Debye]
 Dipole X            :         38.9358167          -38.6299111            0.3059056
 Dipole Y            :         -1.9028129            2.4581205            0.5553077
 Dipole Z            :        -13.8271037           13.6028401           -0.2242635
 Magnitude           :                                                    0.6724871

 ------------------------------------------------------------------------------------

*** tstop() called on d-19-15-2 at Tue Sep 19 00:16:43 2023
Module time:
	user time   =      27.69 seconds =       0.46 minutes
	system time =       0.34 seconds =       0.01 minutes
	total time  =         37 seconds =       0.62 minutes
Total time:
	user time   =   75273.84 seconds =    1254.56 minutes
	system time =   38179.74 seconds =     636.33 minutes
	total time  =     127699 seconds =    2128.32 minutes

    Psi4 stopped on: Tuesday, 19 September 2023 12:16AM
    Psi4 wall time for execution: 0:00:36.85


  //>>>>>>>>>>>>>>>>>>>>>>>>>>>>>>>>>>>//
  //          ManyBody Results         //
  //<<<<<<<<<<<<<<<<<<<<<<<<<<<<<<<<<<<//


   ==> N-Body: Counterpoise Corrected (CP) energies <==

        n-Body     Total Energy            Interaction Energy                          N-body Contribution to Interaction Energy
                   [Eh]                    [Eh]                  [kcal/mol]            [Eh]                  [kcal/mol]
             1  N/A                         0.000000000000        0.000000000000        0.000000000000        0.000000000000
  FULL/RTN   2  N/A                        -0.007496777696       -4.704299026914       -0.007496777696       -4.704299026914


