Scratch directory: /home/gridsan/kfisher/scratch/

  //>>>>>>>>>>>>>>>>>>>>>>>>>>>>>>>>>>>>>>>>//
  // ManyBody Setup: N-Body Levels [1, 2, 3]//
  //<<<<<<<<<<<<<<<<<<<<<<<<<<<<<<<<<<<<<<<<//

        Number of 1-body computations:     3
        Number of 2-body computations:     3
        Number of 3-body computations:     1

    -----------------------------------------------------------------------
          Psi4: An Open-Source Ab Initio Electronic Structure Package
                               Psi4 1.7 release

                         Git: Rev {HEAD} 6ce35a5 


    D. G. A. Smith, L. A. Burns, A. C. Simmonett, R. M. Parrish,
    M. C. Schieber, R. Galvelis, P. Kraus, H. Kruse, R. Di Remigio,
    A. Alenaizan, A. M. James, S. Lehtola, J. P. Misiewicz, M. Scheurer,
    R. A. Shaw, J. B. Schriber, Y. Xie, Z. L. Glick, D. A. Sirianni,
    J. S. O'Brien, J. M. Waldrop, A. Kumar, E. G. Hohenstein,
    B. P. Pritchard, B. R. Brooks, H. F. Schaefer III, A. Yu. Sokolov,
    K. Patkowski, A. E. DePrince III, U. Bozkaya, R. A. King,
    F. A. Evangelista, J. M. Turney, T. D. Crawford, C. D. Sherrill,
    J. Chem. Phys. 152(18) 184108 (2020). https://doi.org/10.1063/5.0006002

                            Additional Code Authors
    E. T. Seidl, C. L. Janssen, E. F. Valeev, M. L. Leininger,
    J. F. Gonthier, R. M. Richard, H. R. McAlexander, M. Saitow, X. Wang,
    P. Verma, M. H. Lechner, A. Jiang, S. Behnle, A. G. Heide,
    M. F. Herbst, and D. L. Poole

             Previous Authors, Complete List of Code Contributors,
                       and Citations for Specific Modules
    https://github.com/psi4/psi4/blob/master/codemeta.json
    https://github.com/psi4/psi4/graphs/contributors
    http://psicode.org/psi4manual/master/introduction.html#citing-psifour

    -----------------------------------------------------------------------


    Psi4 started on: Sunday, 17 September 2023 12:48PM

    Process ID: 258105
    Host:       d-19-15-2
    PSIDATADIR: /home/gridsan/kfisher/.conda/envs/p4env/share/psi4
    Memory:     18.6 GiB
    Threads:    1
    
  ==> Input QCSchema <==

--------------------------------------------------------------------------
{'driver': 'energy',
 'extras': {'psiapi': True, 'wfn_qcvars_only': True},
 'id': None,
 'keywords': {'D_CONVERGENCE': 1e-10, 'E_CONVERGENCE': 1e-10, 'function_kwargs': {'dft_functional': 'scan-d3zero2b'}},
 'model': {'basis': 'aug-cc-pvtz', 'method': 'scf'},
 'molecule': {'atom_labels': ['', '', '', '', '', '', '', '', ''],
              'atomic_numbers': [1, 1, 8, 1, 1, 8, 1, 1, 8],
              'fix_com': True,
              'fix_orientation': True,
              'fix_symmetry': 'c1',
              'fragment_charges': [0.0, 0.0, 0.0],
              'fragment_multiplicities': [1, 1, 1],
              'fragments': [[0, 1, 2], [3, 4, 5], [6, 7, 8]],
              'geometry': [-1.2549376401889865, 0.6299892234170613, -1.8221466468277456, 0.01344037471113873,
                           2.6874314904820276, -0.31943308704843854, -0.030847700299361038, 0.8712250276543073,
                           -0.49871917134499827, -4.388251616239995, -0.9950845376226488, -3.490990206590787,
                           -2.765629604772715, -3.023031581376244, -5.108663705636899, -2.8300720813427542,
                           -1.3147610402933072, -4.405292788494148, 1.9006353632020063, -4.4440834990276015,
                           -5.380682128005745, 0.8141248929721224, -7.034766718859087, -5.967688283480025,
                           0.5911819966772719, -5.224075969749092, -6.3104047617092744],
              'mass_numbers': [1, 1, 16, 1, 1, 16, 1, 1, 16],
              'masses': [1.00782503223, 1.00782503223, 15.99491461957, 1.00782503223, 1.00782503223, 15.99491461957,
                         1.00782503223, 1.00782503223, 15.99491461957],
              'molecular_charge': 0.0,
              'molecular_multiplicity': 1,
              'name': 'H6O3',
              'provenance': {'creator': 'QCElemental',
                             'routine': 'qcelemental.molparse.from_string',
                             'version': 'v0.25.1'},
              'real': [True, True, True, False, False, False, False, False, False],
              'schema_name': 'qcschema_molecule',
              'schema_version': 2,
              'symbols': ['H', 'H', 'O', 'H', 'H', 'O', 'H', 'H', 'O'],
              'validated': True},
 'protocols': {'stdout': True},
 'provenance': {'creator': 'QCElemental', 'routine': 'qcelemental.models.results', 'version': 'v0.25.1'},
 'schema_name': 'qcschema_input',
 'schema_version': 1}
--------------------------------------------------------------------------

Scratch directory: /home/gridsan/kfisher/scratch/

*** tstart() called on d-19-15-2
*** at Tue Sep 19 21:06:10 2023

   => Loading Basis Set <=

    Name: AUG-CC-PVTZ
    Role: ORBITAL
    Keyword: BASIS
    atoms 1-2, 4-5, 7-8 entry H          line    40 file /home/gridsan/kfisher/.conda/envs/p4env/share/psi4/basis/aug-cc-pvtz.gbs 
    atoms 3, 6, 9       entry O          line   331 file /home/gridsan/kfisher/.conda/envs/p4env/share/psi4/basis/aug-cc-pvtz.gbs 

   => SCAN-D3: Empirical Dispersion <=

    Grimme's -D3 (zero-damping) Dispersion Correction
    Grimme S.; Antony J.; Ehrlich S.; Krieg H. (2010), J. Chem. Phys., 132: 154104
    Parametrisation from:    J.G. Brandenburg, J. E. Bates, J. Sun, J.P. Perdew, Phys. Rev. B 94, 115144, 2016

        s6 =       1.000000
        s8 =       0.000000
       sr6 =       1.324000
    alpha6 =      14.000000
       sr8 =       1.000000


         ---------------------------------------------------------
                                   SCF
               by Justin Turney, Rob Parrish, Andy Simmonett
                          and Daniel G. A. Smith
                              RKS Reference
                        1 Threads,  19073 MiB Core
         ---------------------------------------------------------

  ==> Geometry <==

    Molecular point group: c1
    Full point group: C1

    Geometry (in Bohr), charge = 0, multiplicity = 1:

       Center              X                  Y                   Z               Mass       
    ------------   -----------------  -----------------  -----------------  -----------------
         H           -1.254937640189     0.629989223417    -1.822146646828     1.007825032230
         H            0.013440374711     2.687431490482    -0.319433087048     1.007825032230
         O           -0.030847700299     0.871225027654    -0.498719171345    15.994914619570
      Gh(H)          -4.388251616240    -0.995084537623    -3.490990206591     1.007825032230
      Gh(H)          -2.765629604773    -3.023031581376    -5.108663705637     1.007825032230
      Gh(O)          -2.830072081343    -1.314761040293    -4.405292788494    15.994914619570
      Gh(H)           1.900635363202    -4.444083499028    -5.380682128006     1.007825032230
      Gh(H)           0.814124892972    -7.034766718859    -5.967688283480     1.007825032230
      Gh(O)           0.591181996677    -5.224075969749    -6.310404761709    15.994914619570

  Running in c1 symmetry.

  Rotational constants: A =      0.26599  B =      0.03804  C =      0.03402 [cm^-1]
  Rotational constants: A =   7974.28822  B =   1140.41302  C =   1019.97555 [MHz]
  Nuclear repulsion =    9.132046567208473

  Charge       = 0
  Multiplicity = 1
  Electrons    = 10
  Nalpha       = 5
  Nbeta        = 5

  ==> Algorithm <==

  SCF Algorithm Type is DF.
  DIIS enabled.
  MOM disabled.
  Fractional occupation disabled.
  Guess Type is SAD.
  Energy threshold   = 1.00e-10
  Density threshold  = 1.00e-10
  Integral threshold = 1.00e-12

  ==> Primary Basis <==

  Basis Set: AUG-CC-PVTZ
    Blend: AUG-CC-PVTZ
    Number of shells: 96
    Number of basis functions: 276
    Number of Cartesian functions: 315
    Spherical Harmonics?: true
    Max angular momentum: 3

  ==> DFT Potential <==

   => Composite Functional: SCAN-D3ZERO2B <= 

    SCAN Meta-GGA XC Functional
(10.1103/PhysRevLett.115.036402)
    J. Sun, A. Ruzsinszky, J. P. Perdew  Phys. Rev. Lett. 115, 036402, 2015


    Deriv               =              1
    GGA                 =           TRUE
    Meta                =           TRUE

    Exchange Hybrid     =          FALSE
    MP2 Hybrid          =          FALSE

   => Exchange Functionals <=

    1.0000   XC_MGGA_X_SCAN

   => Correlation Functionals <=

    1.0000   XC_MGGA_C_SCAN

   => LibXC Density Thresholds  <==

    XC_MGGA_C_SCAN:  1.00E-15 
    XC_MGGA_X_SCAN:  1.00E-15 

   => Molecular Quadrature <=

    Radial Scheme          =       TREUTLER
    Pruning Scheme         =           NONE
    Nuclear Scheme         =       TREUTLER

    Blocking Scheme        =         OCTREE
    BS radius alpha        =              1
    Pruning alpha          =              1
    Radial Points          =             75
    Spherical Points       =            302
    Total Points           =         197912
    Total Blocks           =           1497
    Max Points             =            256
    Max Functions          =            264
    Weights Tolerance      =       1.00E-15

   => Loading Basis Set <=

    Name: (AUG-CC-PVTZ AUX)
    Role: JKFIT
    Keyword: DF_BASIS_SCF
    atoms 1-2, 4-5, 7-8 entry H          line    70 file /home/gridsan/kfisher/.conda/envs/p4env/share/psi4/basis/aug-cc-pvtz-jkfit.gbs 
    atoms 3, 6, 9       entry O          line   286 file /home/gridsan/kfisher/.conda/envs/p4env/share/psi4/basis/aug-cc-pvtz-jkfit.gbs 

  ==> Integral Setup <==

  DFHelper Memory: AOs need 0.333 GiB; user supplied 11.030 GiB. Using in-core AOs.

  ==> MemDFJK: Density-Fitted J/K Matrices <==

    J tasked:                   Yes
    K tasked:                    No
    wK tasked:                   No
    OpenMP threads:               1
    Memory [MiB]:             11294
    Algorithm:                 Core
    Schwarz Cutoff:           1E-12
    Mask sparsity (%):       5.8312
    Fitting Condition:        1E-10

   => Auxiliary Basis Set <=

  Basis Set: (AUG-CC-PVTZ AUX)
    Blend: AUG-CC-PVTZ-JKFIT
    Number of shells: 174
    Number of basis functions: 588
    Number of Cartesian functions: 723
    Spherical Harmonics?: true
    Max angular momentum: 4

  Cached 100.0% of DFT collocation blocks in 2.940 [GiB].

  Minimum eigenvalue in the overlap matrix is 1.8856633185E-04.
  Reciprocal condition number of the overlap matrix is 1.8345003175E-05.
    Using symmetric orthogonalization.

  ==> Pre-Iterations <==

  SCF Guess: Superposition of Atomic Densities via on-the-fly atomic UHF (no occupation information).

   -------------------------
    Irrep   Nso     Nmo    
   -------------------------
     A        276     276 
   -------------------------
    Total     276     276
   -------------------------

  ==> Iterations <==

                           Total Energy        Delta E     RMS |[F,P]|

   @DF-RKS iter SAD:   -76.06294046877350   -7.60629e+01   0.00000e+00 
   @DF-RKS iter   1:   -76.24409718140247   -1.81157e-01   2.64857e-03 DIIS/ADIIS
   @DF-RKS iter   2:   -75.68015494433558    5.63942e-01   4.97049e-03 DIIS/ADIIS
   @DF-RKS iter   3:   -76.42944728152817   -7.49292e-01   2.27419e-04 DIIS/ADIIS
   @DF-RKS iter   4:   -76.43124399045413   -1.79671e-03   2.88981e-05 DIIS
   @DF-RKS iter   5:   -76.43126439087058   -2.04004e-05   8.05025e-06 DIIS
   @DF-RKS iter   6:   -76.43126606350005   -1.67263e-06   4.05828e-07 DIIS
   @DF-RKS iter   7:   -76.43126606755145   -4.05140e-09   9.13713e-08 DIIS
   @DF-RKS iter   8:   -76.43126606779590   -2.44455e-10   9.29775e-09 DIIS
   @DF-RKS iter   9:   -76.43126606779860   -2.70006e-12   2.82303e-09 DIIS
   @DF-RKS iter  10:   -76.43126606779876   -1.56319e-13   1.33408e-10 DIIS
   @DF-RKS iter  11:   -76.43126606779913   -3.69482e-13   9.03958e-12 DIIS
  Energy and wave function converged.


  ==> Post-Iterations <==

   Electrons on quadrature grid:
      Ntotal   =    9.9999972053 ; deviation = -2.795e-06 

    Orbital Energies [Eh]
    ---------------------

    Doubly Occupied:                                                      

       1A    -18.969343     2A     -0.981431     3A     -0.495472  
       4A     -0.361071     5A     -0.279806  

    Virtual:                                                              

       6A     -0.010845     7A      0.027826     8A      0.038860  
       9A      0.051391    10A      0.060837    11A      0.062308  
      12A      0.090541    13A      0.099473    14A      0.111053  
      15A      0.124144    16A      0.128299    17A      0.146424  
      18A      0.154804    19A      0.161990    20A      0.167193  
      21A      0.185857    22A      0.198010    23A      0.203476  
      24A      0.222241    25A      0.239229    26A      0.253027  
      27A      0.264268    28A      0.279162    29A      0.290240  
      30A      0.293753    31A      0.297817    32A      0.326770  
      33A      0.330888    34A      0.337323    35A      0.347912  
      36A      0.355185    37A      0.364157    38A      0.376847  
      39A      0.379545    40A      0.396714    41A      0.399467  
      42A      0.408914    43A      0.424886    44A      0.441180  
      45A      0.455165    46A      0.487103    47A      0.499099  
      48A      0.532455    49A      0.590023    50A      0.619773  
      51A      0.633676    52A      0.642007    53A      0.654898  
      54A      0.690786    55A      0.704917    56A      0.729950  
      57A      0.753161    58A      0.763650    59A      0.769125  
      60A      0.776190    61A      0.783859    62A      0.792414  
      63A      0.803705    64A      0.822193    65A      0.830287  
      66A      0.835975    67A      0.851459    68A      0.859372  
      69A      0.881389    70A      0.884157    71A      0.892440  
      72A      0.904807    73A      0.921055    74A      0.926646  
      75A      0.936056    76A      0.952650    77A      0.964427  
      78A      0.966965    79A      0.974266    80A      0.987048  
      81A      1.006296    82A      1.020421    83A      1.037167  
      84A      1.041458    85A      1.065318    86A      1.091485  
      87A      1.096206    88A      1.101517    89A      1.120584  
      90A      1.139807    91A      1.157283    92A      1.171030  
      93A      1.181295    94A      1.206509    95A      1.234215  
      96A      1.261864    97A      1.275609    98A      1.294364  
      99A      1.319624   100A      1.352707   101A      1.379918  
     102A      1.385499   103A      1.418318   104A      1.435308  
     105A      1.469661   106A      1.498824   107A      1.513849  
     108A      1.520118   109A      1.549544   110A      1.573392  
     111A      1.590228   112A      1.656057   113A      1.724169  
     114A      1.757036   115A      1.771620   116A      1.797300  
     117A      1.800134   118A      1.821368   119A      1.833161  
     120A      1.839759   121A      1.883911   122A      1.885513  
     123A      1.918830   124A      1.984382   125A      2.043239  
     126A      2.047475   127A      2.097600   128A      2.098743  
     129A      2.178712   130A      2.222508   131A      2.256282  
     132A      2.282345   133A      2.313237   134A      2.365395  
     135A      2.397966   136A      2.415891   137A      2.490618  
     138A      2.501619   139A      2.530623   140A      2.545871  
     141A      2.558159   142A      2.577112   143A      2.583839  
     144A      2.592422   145A      2.646486   146A      2.669345  
     147A      2.679355   148A      2.693066   149A      2.742059  
     150A      2.760945   151A      2.789657   152A      2.820328  
     153A      2.845726   154A      2.865631   155A      2.976711  
     156A      3.001993   157A      3.056280   158A      3.139591  
     159A      3.181219   160A      3.183408   161A      3.225459  
     162A      3.263387   163A      3.294909   164A      3.306846  
     165A      3.327244   166A      3.375966   167A      3.402118  
     168A      3.445714   169A      3.551187   170A      3.568441  
     171A      3.628240   172A      3.730347   173A      3.744430  
     174A      3.871988   175A      3.907866   176A      3.986151  
     177A      4.090521   178A      4.188993   179A      4.207879  
     180A      4.268693   181A      4.286774   182A      4.321010  
     183A      4.374923   184A      4.397530   185A      4.463978  
     186A      4.480107   187A      4.497677   188A      4.514444  
     189A      4.558565   190A      4.629027   191A      4.656760  
     192A      4.660637   193A      4.668074   194A      4.731187  
     195A      4.758364   196A      4.829540   197A      4.899871  
     198A      4.904682   199A      4.992918   200A      5.009514  
     201A      5.022015   202A      5.035420   203A      5.063381  
     204A      5.107476   205A      5.148610   206A      5.186733  
     207A      5.204773   208A      5.306970   209A      5.316137  
     210A      5.348189   211A      5.525648   212A      5.540259  
     213A      5.553017   214A      5.612133   215A      5.629595  
     216A      5.708949   217A      5.743681   218A      5.875800  
     219A      5.896588   220A      6.032121   221A      6.198478  
     222A      6.274453   223A      6.314661   224A      6.338489  
     225A      6.420257   226A      6.508805   227A      6.628682  
     228A      6.708789   229A      6.842902   230A      6.861203  
     231A      6.923317   232A      6.991198   233A      7.023790  
     234A      7.076836   235A      7.086802   236A      7.119264  
     237A      7.156216   238A      7.350939   239A      7.684912  
     240A      7.726165   241A      7.728368   242A      7.823828  
     243A      7.856988   244A      7.873110   245A      8.084509  
     246A      8.162801   247A      8.186000   248A      8.298084  
     249A      8.313733   250A      8.412053   251A      8.577162  
     252A      8.733589   253A      8.803459   254A      8.836408  
     255A      9.000906   256A      9.752310   257A      9.837774  
     258A      9.952163   259A      9.964179   260A     10.022752  
     261A     10.117695   262A     10.227971   263A     10.285082  
     264A     11.129258   265A     11.195456   266A     11.752441  
     267A     11.819633   268A     12.168912   269A     12.257254  
     270A     13.486345   271A     13.511634   272A     13.842994  
     273A     13.971671   274A     15.755014   275A     64.732727  
     276A     65.425392  

    Final Occupation by Irrep:
              A 
    DOCC [     5 ]
    NA   [     5 ]
    NB   [     5 ]

  @DF-RKS Final Energy:   -76.43126606779913

   => Energetics <=

    Nuclear Repulsion Energy =              9.1320465672084730
    One-Electron Energy =                -122.9394587632252183
    Two-Electron Energy =                  46.6703558740253186
    DFT Exchange-Correlation Energy =      -9.2942096258077083
    Empirical Dispersion Energy =          -0.0000001200000000
    VV10 Nonlocal Energy =                  0.0000000000000000
    Total Energy =                        -76.4312660677991289

Computation Completed


Properties will be evaluated at   0.000000,   0.000000,   0.000000 [a0]

Properties computed using the SCF density matrix


 Multipole Moments:

 ------------------------------------------------------------------------------------
     Multipole            Electronic (a.u.)      Nuclear  (a.u.)        Total (a.u.)
 ------------------------------------------------------------------------------------

 L = 1.  Multiply by 2.5417464519 to convert [e a0] to [Debye]
 Dipole X            :          1.1073385           -1.4882789           -0.3809404
 Dipole Y            :         -9.7800325           10.2872209            0.5071884
 Dipole Z            :          5.7618307           -6.1313331           -0.3695024
 Magnitude           :                                                    0.7340897

 ------------------------------------------------------------------------------------

*** tstop() called on d-19-15-2 at Tue Sep 19 21:07:13 2023
Module time:
	user time   =      53.17 seconds =       0.89 minutes
	system time =       0.95 seconds =       0.02 minutes
	total time  =         63 seconds =       1.05 minutes
Total time:
	user time   =  119483.21 seconds =    1991.39 minutes
	system time =   61475.89 seconds =    1024.60 minutes
	total time  =     202729 seconds =    3378.82 minutes

    Psi4 stopped on: Tuesday, 19 September 2023 09:07PM
    Psi4 wall time for execution: 0:01:04.30


    -----------------------------------------------------------------------
          Psi4: An Open-Source Ab Initio Electronic Structure Package
                               Psi4 1.7 release

                         Git: Rev {HEAD} 6ce35a5 


    D. G. A. Smith, L. A. Burns, A. C. Simmonett, R. M. Parrish,
    M. C. Schieber, R. Galvelis, P. Kraus, H. Kruse, R. Di Remigio,
    A. Alenaizan, A. M. James, S. Lehtola, J. P. Misiewicz, M. Scheurer,
    R. A. Shaw, J. B. Schriber, Y. Xie, Z. L. Glick, D. A. Sirianni,
    J. S. O'Brien, J. M. Waldrop, A. Kumar, E. G. Hohenstein,
    B. P. Pritchard, B. R. Brooks, H. F. Schaefer III, A. Yu. Sokolov,
    K. Patkowski, A. E. DePrince III, U. Bozkaya, R. A. King,
    F. A. Evangelista, J. M. Turney, T. D. Crawford, C. D. Sherrill,
    J. Chem. Phys. 152(18) 184108 (2020). https://doi.org/10.1063/5.0006002

                            Additional Code Authors
    E. T. Seidl, C. L. Janssen, E. F. Valeev, M. L. Leininger,
    J. F. Gonthier, R. M. Richard, H. R. McAlexander, M. Saitow, X. Wang,
    P. Verma, M. H. Lechner, A. Jiang, S. Behnle, A. G. Heide,
    M. F. Herbst, and D. L. Poole

             Previous Authors, Complete List of Code Contributors,
                       and Citations for Specific Modules
    https://github.com/psi4/psi4/blob/master/codemeta.json
    https://github.com/psi4/psi4/graphs/contributors
    http://psicode.org/psi4manual/master/introduction.html#citing-psifour

    -----------------------------------------------------------------------


    Psi4 started on: Sunday, 17 September 2023 12:48PM

    Process ID: 258105
    Host:       d-19-15-2
    PSIDATADIR: /home/gridsan/kfisher/.conda/envs/p4env/share/psi4
    Memory:     18.6 GiB
    Threads:    1
    
  ==> Input QCSchema <==

--------------------------------------------------------------------------
{'driver': 'energy',
 'extras': {'psiapi': True, 'wfn_qcvars_only': True},
 'id': None,
 'keywords': {'D_CONVERGENCE': 1e-10, 'E_CONVERGENCE': 1e-10, 'function_kwargs': {'dft_functional': 'scan-d3zero2b'}},
 'model': {'basis': 'aug-cc-pvtz', 'method': 'scf'},
 'molecule': {'atom_labels': ['', '', '', '', '', '', '', '', ''],
              'atomic_numbers': [1, 1, 8, 1, 1, 8, 1, 1, 8],
              'fix_com': True,
              'fix_orientation': True,
              'fix_symmetry': 'c1',
              'fragment_charges': [0.0, 0.0, 0.0],
              'fragment_multiplicities': [1, 1, 1],
              'fragments': [[0, 1, 2], [3, 4, 5], [6, 7, 8]],
              'geometry': [-1.2549376401889865, 0.6299892234170613, -1.8221466468277456, 0.01344037471113873,
                           2.6874314904820276, -0.31943308704843854, -0.030847700299361038, 0.8712250276543073,
                           -0.49871917134499827, -4.388251616239995, -0.9950845376226488, -3.490990206590787,
                           -2.765629604772715, -3.023031581376244, -5.108663705636899, -2.8300720813427542,
                           -1.3147610402933072, -4.405292788494148, 1.9006353632020063, -4.4440834990276015,
                           -5.380682128005745, 0.8141248929721224, -7.034766718859087, -5.967688283480025,
                           0.5911819966772719, -5.224075969749092, -6.3104047617092744],
              'mass_numbers': [1, 1, 16, 1, 1, 16, 1, 1, 16],
              'masses': [1.00782503223, 1.00782503223, 15.99491461957, 1.00782503223, 1.00782503223, 15.99491461957,
                         1.00782503223, 1.00782503223, 15.99491461957],
              'molecular_charge': 0.0,
              'molecular_multiplicity': 1,
              'name': 'H6O3',
              'provenance': {'creator': 'QCElemental',
                             'routine': 'qcelemental.molparse.from_string',
                             'version': 'v0.25.1'},
              'real': [False, False, False, True, True, True, False, False, False],
              'schema_name': 'qcschema_molecule',
              'schema_version': 2,
              'symbols': ['H', 'H', 'O', 'H', 'H', 'O', 'H', 'H', 'O'],
              'validated': True},
 'protocols': {'stdout': True},
 'provenance': {'creator': 'QCElemental', 'routine': 'qcelemental.models.results', 'version': 'v0.25.1'},
 'schema_name': 'qcschema_input',
 'schema_version': 1}
--------------------------------------------------------------------------

Scratch directory: /home/gridsan/kfisher/scratch/

*** tstart() called on d-19-15-2
*** at Tue Sep 19 21:07:14 2023

   => Loading Basis Set <=

    Name: AUG-CC-PVTZ
    Role: ORBITAL
    Keyword: BASIS
    atoms 1-2, 4-5, 7-8 entry H          line    40 file /home/gridsan/kfisher/.conda/envs/p4env/share/psi4/basis/aug-cc-pvtz.gbs 
    atoms 3, 6, 9       entry O          line   331 file /home/gridsan/kfisher/.conda/envs/p4env/share/psi4/basis/aug-cc-pvtz.gbs 

   => SCAN-D3: Empirical Dispersion <=

    Grimme's -D3 (zero-damping) Dispersion Correction
    Grimme S.; Antony J.; Ehrlich S.; Krieg H. (2010), J. Chem. Phys., 132: 154104
    Parametrisation from:    J.G. Brandenburg, J. E. Bates, J. Sun, J.P. Perdew, Phys. Rev. B 94, 115144, 2016

        s6 =       1.000000
        s8 =       0.000000
       sr6 =       1.324000
    alpha6 =      14.000000
       sr8 =       1.000000


         ---------------------------------------------------------
                                   SCF
               by Justin Turney, Rob Parrish, Andy Simmonett
                          and Daniel G. A. Smith
                              RKS Reference
                        1 Threads,  19073 MiB Core
         ---------------------------------------------------------

  ==> Geometry <==

    Molecular point group: c1
    Full point group: C1

    Geometry (in Bohr), charge = 0, multiplicity = 1:

       Center              X                  Y                   Z               Mass       
    ------------   -----------------  -----------------  -----------------  -----------------
      Gh(H)          -1.254937640189     0.629989223417    -1.822146646828     1.007825032230
      Gh(H)           0.013440374711     2.687431490482    -0.319433087048     1.007825032230
      Gh(O)          -0.030847700299     0.871225027654    -0.498719171345    15.994914619570
         H           -4.388251616240    -0.995084537623    -3.490990206591     1.007825032230
         H           -2.765629604773    -3.023031581376    -5.108663705637     1.007825032230
         O           -2.830072081343    -1.314761040293    -4.405292788494    15.994914619570
      Gh(H)           1.900635363202    -4.444083499028    -5.380682128006     1.007825032230
      Gh(H)           0.814124892972    -7.034766718859    -5.967688283480     1.007825032230
      Gh(O)           0.591181996677    -5.224075969749    -6.310404761709    15.994914619570

  Running in c1 symmetry.

  Rotational constants: A =      0.26599  B =      0.03804  C =      0.03402 [cm^-1]
  Rotational constants: A =   7974.28822  B =   1140.41302  C =   1019.97555 [MHz]
  Nuclear repulsion =    9.015000800904366

  Charge       = 0
  Multiplicity = 1
  Electrons    = 10
  Nalpha       = 5
  Nbeta        = 5

  ==> Algorithm <==

  SCF Algorithm Type is DF.
  DIIS enabled.
  MOM disabled.
  Fractional occupation disabled.
  Guess Type is SAD.
  Energy threshold   = 1.00e-10
  Density threshold  = 1.00e-10
  Integral threshold = 1.00e-12

  ==> Primary Basis <==

  Basis Set: AUG-CC-PVTZ
    Blend: AUG-CC-PVTZ
    Number of shells: 96
    Number of basis functions: 276
    Number of Cartesian functions: 315
    Spherical Harmonics?: true
    Max angular momentum: 3

  ==> DFT Potential <==

   => Composite Functional: SCAN-D3ZERO2B <= 

    SCAN Meta-GGA XC Functional
(10.1103/PhysRevLett.115.036402)
    J. Sun, A. Ruzsinszky, J. P. Perdew  Phys. Rev. Lett. 115, 036402, 2015


    Deriv               =              1
    GGA                 =           TRUE
    Meta                =           TRUE

    Exchange Hybrid     =          FALSE
    MP2 Hybrid          =          FALSE

   => Exchange Functionals <=

    1.0000   XC_MGGA_X_SCAN

   => Correlation Functionals <=

    1.0000   XC_MGGA_C_SCAN

   => LibXC Density Thresholds  <==

    XC_MGGA_C_SCAN:  1.00E-15 
    XC_MGGA_X_SCAN:  1.00E-15 

   => Molecular Quadrature <=

    Radial Scheme          =       TREUTLER
    Pruning Scheme         =           NONE
    Nuclear Scheme         =       TREUTLER

    Blocking Scheme        =         OCTREE
    BS radius alpha        =              1
    Pruning alpha          =              1
    Radial Points          =             75
    Spherical Points       =            302
    Total Points           =         197912
    Total Blocks           =           1497
    Max Points             =            256
    Max Functions          =            264
    Weights Tolerance      =       1.00E-15

   => Loading Basis Set <=

    Name: (AUG-CC-PVTZ AUX)
    Role: JKFIT
    Keyword: DF_BASIS_SCF
    atoms 1-2, 4-5, 7-8 entry H          line    70 file /home/gridsan/kfisher/.conda/envs/p4env/share/psi4/basis/aug-cc-pvtz-jkfit.gbs 
    atoms 3, 6, 9       entry O          line   286 file /home/gridsan/kfisher/.conda/envs/p4env/share/psi4/basis/aug-cc-pvtz-jkfit.gbs 

  ==> Integral Setup <==

  DFHelper Memory: AOs need 0.333 GiB; user supplied 11.030 GiB. Using in-core AOs.

  ==> MemDFJK: Density-Fitted J/K Matrices <==

    J tasked:                   Yes
    K tasked:                    No
    wK tasked:                   No
    OpenMP threads:               1
    Memory [MiB]:             11294
    Algorithm:                 Core
    Schwarz Cutoff:           1E-12
    Mask sparsity (%):       5.8312
    Fitting Condition:        1E-10

   => Auxiliary Basis Set <=

  Basis Set: (AUG-CC-PVTZ AUX)
    Blend: AUG-CC-PVTZ-JKFIT
    Number of shells: 174
    Number of basis functions: 588
    Number of Cartesian functions: 723
    Spherical Harmonics?: true
    Max angular momentum: 4

  Cached 100.0% of DFT collocation blocks in 2.940 [GiB].

  Minimum eigenvalue in the overlap matrix is 1.8856633185E-04.
  Reciprocal condition number of the overlap matrix is 1.8345003175E-05.
    Using symmetric orthogonalization.

  ==> Pre-Iterations <==

  SCF Guess: Superposition of Atomic Densities via on-the-fly atomic UHF (no occupation information).

   -------------------------
    Irrep   Nso     Nmo    
   -------------------------
     A        276     276 
   -------------------------
    Total     276     276
   -------------------------

  ==> Iterations <==

                           Total Energy        Delta E     RMS |[F,P]|

   @DF-RKS iter SAD:   -76.05422222097697   -7.60542e+01   0.00000e+00 
   @DF-RKS iter   1:   -76.23980374914132   -1.85582e-01   2.66065e-03 DIIS/ADIIS
   @DF-RKS iter   2:   -75.63503657018843    6.04767e-01   5.07923e-03 DIIS/ADIIS
   @DF-RKS iter   3:   -76.42744593695835   -7.92409e-01   2.29510e-04 DIIS/ADIIS
   @DF-RKS iter   4:   -76.42933861534949   -1.89268e-03   2.52152e-05 DIIS
   @DF-RKS iter   5:   -76.42935347822116   -1.48629e-05   7.42154e-06 DIIS
   @DF-RKS iter   6:   -76.42935490364846   -1.42543e-06   4.74852e-07 DIIS
   @DF-RKS iter   7:   -76.42935490901739   -5.36893e-09   1.04812e-07 DIIS
   @DF-RKS iter   8:   -76.42935490932051   -3.03118e-10   2.03828e-08 DIIS
   @DF-RKS iter   9:   -76.42935490933341   -1.29035e-11   2.61368e-09 DIIS
   @DF-RKS iter  10:   -76.42935490933365   -2.41585e-13   1.27283e-10 DIIS
   @DF-RKS iter  11:   -76.42935490933370   -4.26326e-14   1.30597e-11 DIIS
  Energy and wave function converged.


  ==> Post-Iterations <==

   Electrons on quadrature grid:
      Ntotal   =    9.9999992550 ; deviation = -7.450e-07 

    Orbital Energies [Eh]
    ---------------------

    Doubly Occupied:                                                      

       1A    -18.967124     2A     -0.970941     3A     -0.508202  
       4A     -0.342188     5A     -0.276958  

    Virtual:                                                              

       6A     -0.011498     7A      0.028454     8A      0.036232  
       9A      0.053323    10A      0.056718    11A      0.066396  
      12A      0.089019    13A      0.095024    14A      0.113567  
      15A      0.120493    16A      0.140026    17A      0.147469  
      18A      0.148095    19A      0.158744    20A      0.165673  
      21A      0.181337    22A      0.194689    23A      0.210067  
      24A      0.221276    25A      0.246030    26A      0.254354  
      27A      0.273199    28A      0.281045    29A      0.285145  
      30A      0.298965    31A      0.312294    32A      0.316944  
      33A      0.324771    34A      0.334198    35A      0.352132  
      36A      0.357970    37A      0.363500    38A      0.372174  
      39A      0.385772    40A      0.388819    41A      0.395266  
      42A      0.402187    43A      0.415530    44A      0.438405  
      45A      0.450315    46A      0.465284    47A      0.535617  
      48A      0.551887    49A      0.585227    50A      0.618736  
      51A      0.635245    52A      0.661099    53A      0.668649  
      54A      0.694098    55A      0.706255    56A      0.720336  
      57A      0.747892    58A      0.756653    59A      0.766259  
      60A      0.770426    61A      0.781848    62A      0.800067  
      63A      0.803792    64A      0.819144    65A      0.822797  
      66A      0.842228    67A      0.848068    68A      0.869663  
      69A      0.880961    70A      0.889950    71A      0.899027  
      72A      0.912317    73A      0.923708    74A      0.935682  
      75A      0.946015    76A      0.954316    77A      0.958818  
      78A      0.967346    79A      0.975764    80A      0.996494  
      81A      1.008555    82A      1.027123    83A      1.036577  
      84A      1.062049    85A      1.073725    86A      1.080741  
      87A      1.105941    88A      1.113421    89A      1.115288  
      90A      1.138396    91A      1.142119    92A      1.158751  
      93A      1.184727    94A      1.197201    95A      1.213964  
      96A      1.252387    97A      1.284804    98A      1.306539  
      99A      1.328089   100A      1.349447   101A      1.367638  
     102A      1.378148   103A      1.449290   104A      1.466571  
     105A      1.486034   106A      1.508132   107A      1.533144  
     108A      1.539117   109A      1.568426   110A      1.620574  
     111A      1.632331   112A      1.690205   113A      1.716301  
     114A      1.734863   115A      1.758322   116A      1.766862  
     117A      1.800636   118A      1.815687   119A      1.832999  
     120A      1.850709   121A      1.859438   122A      1.869446  
     123A      1.923426   124A      1.957805   125A      1.988171  
     126A      2.048415   127A      2.128735   128A      2.179929  
     129A      2.190802   130A      2.264963   131A      2.283379  
     132A      2.329015   133A      2.384904   134A      2.434966  
     135A      2.439933   136A      2.462847   137A      2.488941  
     138A      2.493973   139A      2.518117   140A      2.533022  
     141A      2.554801   142A      2.564775   143A      2.587280  
     144A      2.612091   145A      2.624087   146A      2.633839  
     147A      2.659811   148A      2.695316   149A      2.702912  
     150A      2.709394   151A      2.753294   152A      2.826049  
     153A      2.843357   154A      2.901141   155A      2.920840  
     156A      2.932539   157A      2.991636   158A      3.108149  
     159A      3.159869   160A      3.185972   161A      3.213995  
     162A      3.229993   163A      3.276442   164A      3.308470  
     165A      3.318655   166A      3.382760   167A      3.476001  
     168A      3.503877   169A      3.548685   170A      3.596092  
     171A      3.636641   172A      3.689925   173A      3.778394  
     174A      3.886646   175A      3.938903   176A      4.071396  
     177A      4.194892   178A      4.264519   179A      4.304371  
     180A      4.351435   181A      4.372433   182A      4.434531  
     183A      4.435670   184A      4.459184   185A      4.467777  
     186A      4.495903   187A      4.509315   188A      4.523921  
     189A      4.605184   190A      4.635520   191A      4.642214  
     192A      4.672956   193A      4.726685   194A      4.745144  
     195A      4.763392   196A      4.775287   197A      4.893834  
     198A      4.906091   199A      4.974976   200A      4.992228  
     201A      5.008340   202A      5.055136   203A      5.116650  
     204A      5.148316   205A      5.189357   206A      5.230481  
     207A      5.273396   208A      5.299714   209A      5.367361  
     210A      5.477849   211A      5.525397   212A      5.592710  
     213A      5.643234   214A      5.672335   215A      5.687372  
     216A      5.706672   217A      5.830567   218A      5.858104  
     219A      5.962614   220A      5.987636   221A      6.195952  
     222A      6.300604   223A      6.363481   224A      6.390409  
     225A      6.530612   226A      6.598689   227A      6.619810  
     228A      6.706350   229A      6.732413   230A      6.933637  
     231A      6.982706   232A      6.994763   233A      7.051813  
     234A      7.078459   235A      7.161072   236A      7.184140  
     237A      7.251114   238A      7.480872   239A      7.640639  
     240A      7.717326   241A      7.719611   242A      7.790304  
     243A      7.845521   244A      7.928718   245A      8.063787  
     246A      8.133427   247A      8.140821   248A      8.286494  
     249A      8.294275   250A      8.391573   251A      8.465644  
     252A      8.712899   253A      8.805046   254A      8.967766  
     255A      9.139542   256A      9.717835   257A      9.724239  
     258A      9.917924   259A      9.937098   260A      9.994886  
     261A     10.157224   262A     10.200171   263A     10.413273  
     264A     11.168233   265A     11.359848   266A     11.787217  
     267A     11.835456   268A     12.165884   269A     12.283540  
     270A     13.475476   271A     13.697280   272A     13.814068  
     273A     14.076757   274A     15.392720   275A     64.794394  
     276A     66.097002  

    Final Occupation by Irrep:
              A 
    DOCC [     5 ]
    NA   [     5 ]
    NB   [     5 ]

  @DF-RKS Final Energy:   -76.42935490933370

   => Energetics <=

    Nuclear Repulsion Energy =              9.0150008009043656
    One-Electron Energy =                -122.7531448156176310
    Two-Electron Energy =                  46.5912431345233671
    DFT Exchange-Correlation Energy =      -9.2824538291437833
    Empirical Dispersion Energy =          -0.0000002000000000
    VV10 Nonlocal Energy =                  0.0000000000000000
    Total Energy =                        -76.4293549093336964

Computation Completed


Properties will be evaluated at   0.000000,   0.000000,   0.000000 [a0]

Properties computed using the SCF density matrix


 Multipole Moments:

 ------------------------------------------------------------------------------------
     Multipole            Electronic (a.u.)      Nuclear  (a.u.)        Total (a.u.)
 ------------------------------------------------------------------------------------

 L = 1.  Multiply by 2.5417464519 to convert [e a0] to [Debye]
 Dipole X            :         29.3015322          -29.7944579           -0.4929257
 Dipole Y            :         14.0793204          -14.5362044           -0.4568841
 Dipole Z            :         43.9119003          -43.8419962            0.0699041
 Magnitude           :                                                    0.6757258

 ------------------------------------------------------------------------------------

*** tstop() called on d-19-15-2 at Tue Sep 19 21:08:13 2023
Module time:
	user time   =      53.61 seconds =       0.89 minutes
	system time =       0.78 seconds =       0.01 minutes
	total time  =         59 seconds =       0.98 minutes
Total time:
	user time   =  119536.92 seconds =    1992.28 minutes
	system time =   61476.69 seconds =    1024.61 minutes
	total time  =     202789 seconds =    3379.82 minutes

    Psi4 stopped on: Tuesday, 19 September 2023 09:08PM
    Psi4 wall time for execution: 0:00:59.11


    -----------------------------------------------------------------------
          Psi4: An Open-Source Ab Initio Electronic Structure Package
                               Psi4 1.7 release

                         Git: Rev {HEAD} 6ce35a5 


    D. G. A. Smith, L. A. Burns, A. C. Simmonett, R. M. Parrish,
    M. C. Schieber, R. Galvelis, P. Kraus, H. Kruse, R. Di Remigio,
    A. Alenaizan, A. M. James, S. Lehtola, J. P. Misiewicz, M. Scheurer,
    R. A. Shaw, J. B. Schriber, Y. Xie, Z. L. Glick, D. A. Sirianni,
    J. S. O'Brien, J. M. Waldrop, A. Kumar, E. G. Hohenstein,
    B. P. Pritchard, B. R. Brooks, H. F. Schaefer III, A. Yu. Sokolov,
    K. Patkowski, A. E. DePrince III, U. Bozkaya, R. A. King,
    F. A. Evangelista, J. M. Turney, T. D. Crawford, C. D. Sherrill,
    J. Chem. Phys. 152(18) 184108 (2020). https://doi.org/10.1063/5.0006002

                            Additional Code Authors
    E. T. Seidl, C. L. Janssen, E. F. Valeev, M. L. Leininger,
    J. F. Gonthier, R. M. Richard, H. R. McAlexander, M. Saitow, X. Wang,
    P. Verma, M. H. Lechner, A. Jiang, S. Behnle, A. G. Heide,
    M. F. Herbst, and D. L. Poole

             Previous Authors, Complete List of Code Contributors,
                       and Citations for Specific Modules
    https://github.com/psi4/psi4/blob/master/codemeta.json
    https://github.com/psi4/psi4/graphs/contributors
    http://psicode.org/psi4manual/master/introduction.html#citing-psifour

    -----------------------------------------------------------------------


    Psi4 started on: Sunday, 17 September 2023 12:48PM

    Process ID: 258105
    Host:       d-19-15-2
    PSIDATADIR: /home/gridsan/kfisher/.conda/envs/p4env/share/psi4
    Memory:     18.6 GiB
    Threads:    1
    
  ==> Input QCSchema <==

--------------------------------------------------------------------------
{'driver': 'energy',
 'extras': {'psiapi': True, 'wfn_qcvars_only': True},
 'id': None,
 'keywords': {'D_CONVERGENCE': 1e-10, 'E_CONVERGENCE': 1e-10, 'function_kwargs': {'dft_functional': 'scan-d3zero2b'}},
 'model': {'basis': 'aug-cc-pvtz', 'method': 'scf'},
 'molecule': {'atom_labels': ['', '', '', '', '', '', '', '', ''],
              'atomic_numbers': [1, 1, 8, 1, 1, 8, 1, 1, 8],
              'fix_com': True,
              'fix_orientation': True,
              'fix_symmetry': 'c1',
              'fragment_charges': [0.0, 0.0, 0.0],
              'fragment_multiplicities': [1, 1, 1],
              'fragments': [[0, 1, 2], [3, 4, 5], [6, 7, 8]],
              'geometry': [-1.2549376401889865, 0.6299892234170613, -1.8221466468277456, 0.01344037471113873,
                           2.6874314904820276, -0.31943308704843854, -0.030847700299361038, 0.8712250276543073,
                           -0.49871917134499827, -4.388251616239995, -0.9950845376226488, -3.490990206590787,
                           -2.765629604772715, -3.023031581376244, -5.108663705636899, -2.8300720813427542,
                           -1.3147610402933072, -4.405292788494148, 1.9006353632020063, -4.4440834990276015,
                           -5.380682128005745, 0.8141248929721224, -7.034766718859087, -5.967688283480025,
                           0.5911819966772719, -5.224075969749092, -6.3104047617092744],
              'mass_numbers': [1, 1, 16, 1, 1, 16, 1, 1, 16],
              'masses': [1.00782503223, 1.00782503223, 15.99491461957, 1.00782503223, 1.00782503223, 15.99491461957,
                         1.00782503223, 1.00782503223, 15.99491461957],
              'molecular_charge': 0.0,
              'molecular_multiplicity': 1,
              'name': 'H6O3',
              'provenance': {'creator': 'QCElemental',
                             'routine': 'qcelemental.molparse.from_string',
                             'version': 'v0.25.1'},
              'real': [False, False, False, True, True, True, True, True, True],
              'schema_name': 'qcschema_molecule',
              'schema_version': 2,
              'symbols': ['H', 'H', 'O', 'H', 'H', 'O', 'H', 'H', 'O'],
              'validated': True},
 'protocols': {'stdout': True},
 'provenance': {'creator': 'QCElemental', 'routine': 'qcelemental.models.results', 'version': 'v0.25.1'},
 'schema_name': 'qcschema_input',
 'schema_version': 1}
--------------------------------------------------------------------------

Scratch directory: /home/gridsan/kfisher/scratch/

*** tstart() called on d-19-15-2
*** at Tue Sep 19 21:08:13 2023

   => Loading Basis Set <=

    Name: AUG-CC-PVTZ
    Role: ORBITAL
    Keyword: BASIS
    atoms 1-2, 4-5, 7-8 entry H          line    40 file /home/gridsan/kfisher/.conda/envs/p4env/share/psi4/basis/aug-cc-pvtz.gbs 
    atoms 3, 6, 9       entry O          line   331 file /home/gridsan/kfisher/.conda/envs/p4env/share/psi4/basis/aug-cc-pvtz.gbs 

   => SCAN-D3: Empirical Dispersion <=

    Grimme's -D3 (zero-damping) Dispersion Correction
    Grimme S.; Antony J.; Ehrlich S.; Krieg H. (2010), J. Chem. Phys., 132: 154104
    Parametrisation from:    J.G. Brandenburg, J. E. Bates, J. Sun, J.P. Perdew, Phys. Rev. B 94, 115144, 2016

        s6 =       1.000000
        s8 =       0.000000
       sr6 =       1.324000
    alpha6 =      14.000000
       sr8 =       1.000000


         ---------------------------------------------------------
                                   SCF
               by Justin Turney, Rob Parrish, Andy Simmonett
                          and Daniel G. A. Smith
                              RKS Reference
                        1 Threads,  19073 MiB Core
         ---------------------------------------------------------

  ==> Geometry <==

    Molecular point group: c1
    Full point group: C1

    Geometry (in Bohr), charge = 0, multiplicity = 1:

       Center              X                  Y                   Z               Mass       
    ------------   -----------------  -----------------  -----------------  -----------------
      Gh(H)          -1.254937640189     0.629989223417    -1.822146646828     1.007825032230
      Gh(H)           0.013440374711     2.687431490482    -0.319433087048     1.007825032230
      Gh(O)          -0.030847700299     0.871225027654    -0.498719171345    15.994914619570
         H           -4.388251616240    -0.995084537623    -3.490990206591     1.007825032230
         H           -2.765629604773    -3.023031581376    -5.108663705637     1.007825032230
         O           -2.830072081343    -1.314761040293    -4.405292788494    15.994914619570
         H            1.900635363202    -4.444083499028    -5.380682128006     1.007825032230
         H            0.814124892972    -7.034766718859    -5.967688283480     1.007825032230
         O            0.591181996677    -5.224075969749    -6.310404761709    15.994914619570

  Running in c1 symmetry.

  Rotational constants: A =      0.26599  B =      0.03804  C =      0.03402 [cm^-1]
  Rotational constants: A =   7974.28822  B =   1140.41302  C =   1019.97555 [MHz]
  Nuclear repulsion =   35.936485724858827

  Charge       = 0
  Multiplicity = 1
  Electrons    = 20
  Nalpha       = 10
  Nbeta        = 10

  ==> Algorithm <==

  SCF Algorithm Type is DF.
  DIIS enabled.
  MOM disabled.
  Fractional occupation disabled.
  Guess Type is SAD.
  Energy threshold   = 1.00e-10
  Density threshold  = 1.00e-10
  Integral threshold = 1.00e-12

  ==> Primary Basis <==

  Basis Set: AUG-CC-PVTZ
    Blend: AUG-CC-PVTZ
    Number of shells: 96
    Number of basis functions: 276
    Number of Cartesian functions: 315
    Spherical Harmonics?: true
    Max angular momentum: 3

  ==> DFT Potential <==

   => Composite Functional: SCAN-D3ZERO2B <= 

    SCAN Meta-GGA XC Functional
(10.1103/PhysRevLett.115.036402)
    J. Sun, A. Ruzsinszky, J. P. Perdew  Phys. Rev. Lett. 115, 036402, 2015


    Deriv               =              1
    GGA                 =           TRUE
    Meta                =           TRUE

    Exchange Hybrid     =          FALSE
    MP2 Hybrid          =          FALSE

   => Exchange Functionals <=

    1.0000   XC_MGGA_X_SCAN

   => Correlation Functionals <=

    1.0000   XC_MGGA_C_SCAN

   => LibXC Density Thresholds  <==

    XC_MGGA_C_SCAN:  1.00E-15 
    XC_MGGA_X_SCAN:  1.00E-15 

   => Molecular Quadrature <=

    Radial Scheme          =       TREUTLER
    Pruning Scheme         =           NONE
    Nuclear Scheme         =       TREUTLER

    Blocking Scheme        =         OCTREE
    BS radius alpha        =              1
    Pruning alpha          =              1
    Radial Points          =             75
    Spherical Points       =            302
    Total Points           =         197912
    Total Blocks           =           1497
    Max Points             =            256
    Max Functions          =            264
    Weights Tolerance      =       1.00E-15

   => Loading Basis Set <=

    Name: (AUG-CC-PVTZ AUX)
    Role: JKFIT
    Keyword: DF_BASIS_SCF
    atoms 1-2, 4-5, 7-8 entry H          line    70 file /home/gridsan/kfisher/.conda/envs/p4env/share/psi4/basis/aug-cc-pvtz-jkfit.gbs 
    atoms 3, 6, 9       entry O          line   286 file /home/gridsan/kfisher/.conda/envs/p4env/share/psi4/basis/aug-cc-pvtz-jkfit.gbs 

  ==> Integral Setup <==

  DFHelper Memory: AOs need 0.333 GiB; user supplied 11.030 GiB. Using in-core AOs.

  ==> MemDFJK: Density-Fitted J/K Matrices <==

    J tasked:                   Yes
    K tasked:                    No
    wK tasked:                   No
    OpenMP threads:               1
    Memory [MiB]:             11294
    Algorithm:                 Core
    Schwarz Cutoff:           1E-12
    Mask sparsity (%):       5.8312
    Fitting Condition:        1E-10

   => Auxiliary Basis Set <=

  Basis Set: (AUG-CC-PVTZ AUX)
    Blend: AUG-CC-PVTZ-JKFIT
    Number of shells: 174
    Number of basis functions: 588
    Number of Cartesian functions: 723
    Spherical Harmonics?: true
    Max angular momentum: 4

  Cached 100.0% of DFT collocation blocks in 2.940 [GiB].

  Minimum eigenvalue in the overlap matrix is 1.8856633185E-04.
  Reciprocal condition number of the overlap matrix is 1.8345003175E-05.
    Using symmetric orthogonalization.

  ==> Pre-Iterations <==

  SCF Guess: Superposition of Atomic Densities via on-the-fly atomic UHF (no occupation information).

   -------------------------
    Irrep   Nso     Nmo    
   -------------------------
     A        276     276 
   -------------------------
    Total     276     276
   -------------------------

  ==> Iterations <==

                           Total Energy        Delta E     RMS |[F,P]|

   @DF-RKS iter SAD:  -152.14735724934704   -1.52147e+02   0.00000e+00 
   @DF-RKS iter   1:  -152.49942742763932   -3.52070e-01   3.71450e-03 DIIS/ADIIS
   @DF-RKS iter   2:  -151.36312739737639    1.13630e+00   7.00957e-03 DIIS/ADIIS
   @DF-RKS iter   3:  -152.86246669391841   -1.49934e+00   3.33261e-04 DIIS/ADIIS
   @DF-RKS iter   4:  -152.86473024148279   -2.26355e-03   2.56563e-04 DIIS/ADIIS
   @DF-RKS iter   5:  -152.86634357340859   -1.61333e-03   5.67199e-05 DIIS
   @DF-RKS iter   6:  -152.86642689589070   -8.33225e-05   1.11512e-05 DIIS
   @DF-RKS iter   7:  -152.86643053712481   -3.64123e-06   1.24191e-06 DIIS
   @DF-RKS iter   8:  -152.86643057880087   -4.16761e-08   2.85587e-07 DIIS
   @DF-RKS iter   9:  -152.86643058112060   -2.31972e-09   3.86785e-08 DIIS
   @DF-RKS iter  10:  -152.86643058116670   -4.61000e-11   3.86480e-09 DIIS
   @DF-RKS iter  11:  -152.86643058116721   -5.11591e-13   8.55541e-10 DIIS
   @DF-RKS iter  12:  -152.86643058116715    5.68434e-14   1.24451e-10 DIIS
   @DF-RKS iter  13:  -152.86643058116715    0.00000e+00   2.68746e-11 DIIS
  Energy and wave function converged.


  ==> Post-Iterations <==

   Electrons on quadrature grid:
      Ntotal   =   19.9999985350 ; deviation = -1.465e-06 

    Orbital Energies [Eh]
    ---------------------

    Doubly Occupied:                                                      

       1A    -18.980110     2A    -18.947750     3A     -0.992696  
       4A     -0.951658     5A     -0.508986     6A     -0.488519  
       7A     -0.371667     8A     -0.325419     9A     -0.292657  
      10A     -0.258985  

    Virtual:                                                              

      11A     -0.018360    12A      0.011394    13A      0.029892  
      14A      0.046217    15A      0.054590    16A      0.066175  
      17A      0.084232    18A      0.092464    19A      0.102102  
      20A      0.118374    21A      0.125377    22A      0.137483  
      23A      0.145471    24A      0.147248    25A      0.150815  
      26A      0.170017    27A      0.178168    28A      0.185764  
      29A      0.203789    30A      0.212167    31A      0.229766  
      32A      0.243950    33A      0.265717    34A      0.270486  
      35A      0.280613    36A      0.290907    37A      0.305106  
      38A      0.313369    39A      0.327009    40A      0.338936  
      41A      0.351204    42A      0.354017    43A      0.359447  
      44A      0.369150    45A      0.372138    46A      0.383436  
      47A      0.386431    48A      0.403122    49A      0.417409  
      50A      0.449837    51A      0.461685    52A      0.476245  
      53A      0.541945    54A      0.553644    55A      0.559265  
      56A      0.584872    57A      0.588859    58A      0.630764  
      59A      0.638997    60A      0.665174    61A      0.672851  
      62A      0.685591    63A      0.709409    64A      0.710392  
      65A      0.718781    66A      0.762332    67A      0.770602  
      68A      0.779255    69A      0.785689    70A      0.810785  
      71A      0.817477    72A      0.827830    73A      0.837704  
      74A      0.848130    75A      0.850029    76A      0.867658  
      77A      0.891248    78A      0.895114    79A      0.909923  
      80A      0.915462    81A      0.930184    82A      0.944083  
      83A      0.957204    84A      0.963200    85A      0.972712  
      86A      0.992076    87A      0.998821    88A      1.008616  
      89A      1.020020    90A      1.028017    91A      1.049618  
      92A      1.058832    93A      1.084220    94A      1.085824  
      95A      1.103118    96A      1.121805    97A      1.123704  
      98A      1.149200    99A      1.160598   100A      1.184030  
     101A      1.190029   102A      1.222413   103A      1.263836  
     104A      1.286729   105A      1.309964   106A      1.347910  
     107A      1.374401   108A      1.383615   109A      1.402376  
     110A      1.460013   111A      1.482570   112A      1.493209  
     113A      1.517370   114A      1.536358   115A      1.557087  
     116A      1.612387   117A      1.626106   118A      1.644962  
     119A      1.668421   120A      1.700223   121A      1.712565  
     122A      1.740230   123A      1.760812   124A      1.819447  
     125A      1.837756   126A      1.855422   127A      1.874984  
     128A      1.891995   129A      1.906616   130A      1.976432  
     131A      1.987756   132A      2.102861   133A      2.115656  
     134A      2.166214   135A      2.188894   136A      2.193227  
     137A      2.229510   138A      2.258388   139A      2.292401  
     140A      2.299968   141A      2.314805   142A      2.380871  
     143A      2.406874   144A      2.418447   145A      2.426072  
     146A      2.463934   147A      2.481652   148A      2.494559  
     149A      2.512230   150A      2.554609   151A      2.565055  
     152A      2.581353   153A      2.602152   154A      2.615162  
     155A      2.642720   156A      2.678006   157A      2.684875  
     158A      2.692993   159A      2.715698   160A      2.738153  
     161A      2.800203   162A      2.843626   163A      2.896154  
     164A      2.916736   165A      2.968849   166A      3.108269  
     167A      3.214047   168A      3.227643   169A      3.383657  
     170A      3.483699   171A      3.507279   172A      3.526433  
     173A      3.572440   174A      3.602589   175A      3.636847  
     176A      3.760064   177A      3.878090   178A      3.898395  
     179A      3.946110   180A      3.986560   181A      4.051711  
     182A      4.088878   183A      4.138950   184A      4.188219  
     185A      4.239163   186A      4.268533   187A      4.309287  
     188A      4.313009   189A      4.352068   190A      4.379697  
     191A      4.388854   192A      4.434753   193A      4.448048  
     194A      4.465327   195A      4.471695   196A      4.499489  
     197A      4.513117   198A      4.537530   199A      4.620693  
     200A      4.658438   201A      4.722691   202A      4.733980  
     203A      4.754122   204A      4.812944   205A      4.905624  
     206A      4.987065   207A      5.026074   208A      5.034157  
     209A      5.057471   210A      5.111067   211A      5.118587  
     212A      5.144118   213A      5.168199   214A      5.219032  
     215A      5.240333   216A      5.305196   217A      5.360825  
     218A      5.384745   219A      5.485217   220A      5.561521  
     221A      5.644389   222A      5.683177   223A      5.710039  
     224A      5.840459   225A      5.949012   226A      5.991487  
     227A      6.016897   228A      6.270252   229A      6.307005  
     230A      6.375013   231A      6.487878   232A      6.542852  
     233A      6.625433   234A      6.644829   235A      6.721576  
     236A      6.738773   237A      6.888705   238A      6.931561  
     239A      6.948902   240A      6.968394   241A      6.986852  
     242A      7.007402   243A      7.018358   244A      7.046006  
     245A      7.090187   246A      7.117166   247A      7.177160  
     248A      7.199894   249A      7.265733   250A      7.272314  
     251A      7.501264   252A      7.574373   253A      7.655171  
     254A      7.708286   255A      7.759333   256A      7.799640  
     257A      7.935486   258A      8.144046   259A      8.299540  
     260A      8.400806   261A      8.474838   262A      8.539597  
     263A      8.978242   264A      9.155681   265A      9.729269  
     266A      9.928825   267A     10.170086   268A     10.427078  
     269A     11.373298   270A     11.843350   271A     12.298336  
     272A     13.710043   273A     14.093890   274A     15.185507  
     275A     15.455268   276A     66.133054  

    Final Occupation by Irrep:
              A 
    DOCC [    10 ]
    NA   [    10 ]
    NB   [    10 ]

  @DF-RKS Final Energy:  -152.86643058116715

   => Energetics <=

    Nuclear Repulsion Energy =             35.9364857248588265
    One-Electron Energy =                -281.3468266828468813
    Two-Electron Energy =                 111.1273923771293966
    DFT Exchange-Correlation Energy =     -18.5832990503084652
    Empirical Dispersion Energy =          -0.0001829500000000
    VV10 Nonlocal Energy =                  0.0000000000000000
    Total Energy =                       -152.8664305811671227

Computation Completed


Properties will be evaluated at   0.000000,   0.000000,   0.000000 [a0]

Properties computed using the SCF density matrix


 Multipole Moments:

 ------------------------------------------------------------------------------------
     Multipole            Electronic (a.u.)      Nuclear  (a.u.)        Total (a.u.)
 ------------------------------------------------------------------------------------

 L = 1.  Multiply by 2.5417464519 to convert [e a0] to [Debye]
 Dipole X            :         22.4613735          -22.3502416            0.1111319
 Dipole Y            :         66.9488629          -67.8076624           -0.8587995
 Dipole Z            :        106.1109414         -105.6736047            0.4373367
 Magnitude           :                                                    0.9701290

 ------------------------------------------------------------------------------------

*** tstop() called on d-19-15-2 at Tue Sep 19 21:09:35 2023
Module time:
	user time   =      61.90 seconds =       1.03 minutes
	system time =       2.55 seconds =       0.04 minutes
	total time  =         82 seconds =       1.37 minutes
Total time:
	user time   =  119598.93 seconds =    1993.32 minutes
	system time =   61479.24 seconds =    1024.65 minutes
	total time  =     202871 seconds =    3381.18 minutes

    Psi4 stopped on: Tuesday, 19 September 2023 09:09PM
    Psi4 wall time for execution: 0:01:22.25


    -----------------------------------------------------------------------
          Psi4: An Open-Source Ab Initio Electronic Structure Package
                               Psi4 1.7 release

                         Git: Rev {HEAD} 6ce35a5 


    D. G. A. Smith, L. A. Burns, A. C. Simmonett, R. M. Parrish,
    M. C. Schieber, R. Galvelis, P. Kraus, H. Kruse, R. Di Remigio,
    A. Alenaizan, A. M. James, S. Lehtola, J. P. Misiewicz, M. Scheurer,
    R. A. Shaw, J. B. Schriber, Y. Xie, Z. L. Glick, D. A. Sirianni,
    J. S. O'Brien, J. M. Waldrop, A. Kumar, E. G. Hohenstein,
    B. P. Pritchard, B. R. Brooks, H. F. Schaefer III, A. Yu. Sokolov,
    K. Patkowski, A. E. DePrince III, U. Bozkaya, R. A. King,
    F. A. Evangelista, J. M. Turney, T. D. Crawford, C. D. Sherrill,
    J. Chem. Phys. 152(18) 184108 (2020). https://doi.org/10.1063/5.0006002

                            Additional Code Authors
    E. T. Seidl, C. L. Janssen, E. F. Valeev, M. L. Leininger,
    J. F. Gonthier, R. M. Richard, H. R. McAlexander, M. Saitow, X. Wang,
    P. Verma, M. H. Lechner, A. Jiang, S. Behnle, A. G. Heide,
    M. F. Herbst, and D. L. Poole

             Previous Authors, Complete List of Code Contributors,
                       and Citations for Specific Modules
    https://github.com/psi4/psi4/blob/master/codemeta.json
    https://github.com/psi4/psi4/graphs/contributors
    http://psicode.org/psi4manual/master/introduction.html#citing-psifour

    -----------------------------------------------------------------------


    Psi4 started on: Sunday, 17 September 2023 12:48PM

    Process ID: 258105
    Host:       d-19-15-2
    PSIDATADIR: /home/gridsan/kfisher/.conda/envs/p4env/share/psi4
    Memory:     18.6 GiB
    Threads:    1
    
  ==> Input QCSchema <==

--------------------------------------------------------------------------
{'driver': 'energy',
 'extras': {'psiapi': True, 'wfn_qcvars_only': True},
 'id': None,
 'keywords': {'D_CONVERGENCE': 1e-10, 'E_CONVERGENCE': 1e-10, 'function_kwargs': {'dft_functional': 'scan-d3zero2b'}},
 'model': {'basis': 'aug-cc-pvtz', 'method': 'scf'},
 'molecule': {'atom_labels': ['', '', '', '', '', '', '', '', ''],
              'atomic_numbers': [1, 1, 8, 1, 1, 8, 1, 1, 8],
              'fix_com': True,
              'fix_orientation': True,
              'fix_symmetry': 'c1',
              'fragment_charges': [0.0, 0.0, 0.0],
              'fragment_multiplicities': [1, 1, 1],
              'fragments': [[0, 1, 2], [3, 4, 5], [6, 7, 8]],
              'geometry': [-1.2549376401889865, 0.6299892234170613, -1.8221466468277456, 0.01344037471113873,
                           2.6874314904820276, -0.31943308704843854, -0.030847700299361038, 0.8712250276543073,
                           -0.49871917134499827, -4.388251616239995, -0.9950845376226488, -3.490990206590787,
                           -2.765629604772715, -3.023031581376244, -5.108663705636899, -2.8300720813427542,
                           -1.3147610402933072, -4.405292788494148, 1.9006353632020063, -4.4440834990276015,
                           -5.380682128005745, 0.8141248929721224, -7.034766718859087, -5.967688283480025,
                           0.5911819966772719, -5.224075969749092, -6.3104047617092744],
              'mass_numbers': [1, 1, 16, 1, 1, 16, 1, 1, 16],
              'masses': [1.00782503223, 1.00782503223, 15.99491461957, 1.00782503223, 1.00782503223, 15.99491461957,
                         1.00782503223, 1.00782503223, 15.99491461957],
              'molecular_charge': 0.0,
              'molecular_multiplicity': 1,
              'name': 'H6O3',
              'provenance': {'creator': 'QCElemental',
                             'routine': 'qcelemental.molparse.from_string',
                             'version': 'v0.25.1'},
              'real': [True, True, True, False, False, False, True, True, True],
              'schema_name': 'qcschema_molecule',
              'schema_version': 2,
              'symbols': ['H', 'H', 'O', 'H', 'H', 'O', 'H', 'H', 'O'],
              'validated': True},
 'protocols': {'stdout': True},
 'provenance': {'creator': 'QCElemental', 'routine': 'qcelemental.models.results', 'version': 'v0.25.1'},
 'schema_name': 'qcschema_input',
 'schema_version': 1}
--------------------------------------------------------------------------

Scratch directory: /home/gridsan/kfisher/scratch/

*** tstart() called on d-19-15-2
*** at Tue Sep 19 21:09:35 2023

   => Loading Basis Set <=

    Name: AUG-CC-PVTZ
    Role: ORBITAL
    Keyword: BASIS
    atoms 1-2, 4-5, 7-8 entry H          line    40 file /home/gridsan/kfisher/.conda/envs/p4env/share/psi4/basis/aug-cc-pvtz.gbs 
    atoms 3, 6, 9       entry O          line   331 file /home/gridsan/kfisher/.conda/envs/p4env/share/psi4/basis/aug-cc-pvtz.gbs 

   => SCAN-D3: Empirical Dispersion <=

    Grimme's -D3 (zero-damping) Dispersion Correction
    Grimme S.; Antony J.; Ehrlich S.; Krieg H. (2010), J. Chem. Phys., 132: 154104
    Parametrisation from:    J.G. Brandenburg, J. E. Bates, J. Sun, J.P. Perdew, Phys. Rev. B 94, 115144, 2016

        s6 =       1.000000
        s8 =       0.000000
       sr6 =       1.324000
    alpha6 =      14.000000
       sr8 =       1.000000


         ---------------------------------------------------------
                                   SCF
               by Justin Turney, Rob Parrish, Andy Simmonett
                          and Daniel G. A. Smith
                              RKS Reference
                        1 Threads,  19073 MiB Core
         ---------------------------------------------------------

  ==> Geometry <==

    Molecular point group: c1
    Full point group: C1

    Geometry (in Bohr), charge = 0, multiplicity = 1:

       Center              X                  Y                   Z               Mass       
    ------------   -----------------  -----------------  -----------------  -----------------
         H           -1.254937640189     0.629989223417    -1.822146646828     1.007825032230
         H            0.013440374711     2.687431490482    -0.319433087048     1.007825032230
         O           -0.030847700299     0.871225027654    -0.498719171345    15.994914619570
      Gh(H)          -4.388251616240    -0.995084537623    -3.490990206591     1.007825032230
      Gh(H)          -2.765629604773    -3.023031581376    -5.108663705637     1.007825032230
      Gh(O)          -2.830072081343    -1.314761040293    -4.405292788494    15.994914619570
         H            1.900635363202    -4.444083499028    -5.380682128006     1.007825032230
         H            0.814124892972    -7.034766718859    -5.967688283480     1.007825032230
         O            0.591181996677    -5.224075969749    -6.310404761709    15.994914619570

  Running in c1 symmetry.

  Rotational constants: A =      0.26599  B =      0.03804  C =      0.03402 [cm^-1]
  Rotational constants: A =   7974.28822  B =   1140.41302  C =   1019.97555 [MHz]
  Nuclear repulsion =   30.062273846500897

  Charge       = 0
  Multiplicity = 1
  Electrons    = 20
  Nalpha       = 10
  Nbeta        = 10

  ==> Algorithm <==

  SCF Algorithm Type is DF.
  DIIS enabled.
  MOM disabled.
  Fractional occupation disabled.
  Guess Type is SAD.
  Energy threshold   = 1.00e-10
  Density threshold  = 1.00e-10
  Integral threshold = 1.00e-12

  ==> Primary Basis <==

  Basis Set: AUG-CC-PVTZ
    Blend: AUG-CC-PVTZ
    Number of shells: 96
    Number of basis functions: 276
    Number of Cartesian functions: 315
    Spherical Harmonics?: true
    Max angular momentum: 3

  ==> DFT Potential <==

   => Composite Functional: SCAN-D3ZERO2B <= 

    SCAN Meta-GGA XC Functional
(10.1103/PhysRevLett.115.036402)
    J. Sun, A. Ruzsinszky, J. P. Perdew  Phys. Rev. Lett. 115, 036402, 2015


    Deriv               =              1
    GGA                 =           TRUE
    Meta                =           TRUE

    Exchange Hybrid     =          FALSE
    MP2 Hybrid          =          FALSE

   => Exchange Functionals <=

    1.0000   XC_MGGA_X_SCAN

   => Correlation Functionals <=

    1.0000   XC_MGGA_C_SCAN

   => LibXC Density Thresholds  <==

    XC_MGGA_C_SCAN:  1.00E-15 
    XC_MGGA_X_SCAN:  1.00E-15 

   => Molecular Quadrature <=

    Radial Scheme          =       TREUTLER
    Pruning Scheme         =           NONE
    Nuclear Scheme         =       TREUTLER

    Blocking Scheme        =         OCTREE
    BS radius alpha        =              1
    Pruning alpha          =              1
    Radial Points          =             75
    Spherical Points       =            302
    Total Points           =         197912
    Total Blocks           =           1497
    Max Points             =            256
    Max Functions          =            264
    Weights Tolerance      =       1.00E-15

   => Loading Basis Set <=

    Name: (AUG-CC-PVTZ AUX)
    Role: JKFIT
    Keyword: DF_BASIS_SCF
    atoms 1-2, 4-5, 7-8 entry H          line    70 file /home/gridsan/kfisher/.conda/envs/p4env/share/psi4/basis/aug-cc-pvtz-jkfit.gbs 
    atoms 3, 6, 9       entry O          line   286 file /home/gridsan/kfisher/.conda/envs/p4env/share/psi4/basis/aug-cc-pvtz-jkfit.gbs 

  ==> Integral Setup <==

  DFHelper Memory: AOs need 0.333 GiB; user supplied 11.030 GiB. Using in-core AOs.

  ==> MemDFJK: Density-Fitted J/K Matrices <==

    J tasked:                   Yes
    K tasked:                    No
    wK tasked:                   No
    OpenMP threads:               1
    Memory [MiB]:             11294
    Algorithm:                 Core
    Schwarz Cutoff:           1E-12
    Mask sparsity (%):       5.8312
    Fitting Condition:        1E-10

   => Auxiliary Basis Set <=

  Basis Set: (AUG-CC-PVTZ AUX)
    Blend: AUG-CC-PVTZ-JKFIT
    Number of shells: 174
    Number of basis functions: 588
    Number of Cartesian functions: 723
    Spherical Harmonics?: true
    Max angular momentum: 4

  Cached 100.0% of DFT collocation blocks in 2.940 [GiB].

  Minimum eigenvalue in the overlap matrix is 1.8856633185E-04.
  Reciprocal condition number of the overlap matrix is 1.8345003175E-05.
    Using symmetric orthogonalization.

  ==> Pre-Iterations <==

  SCF Guess: Superposition of Atomic Densities via on-the-fly atomic UHF (no occupation information).

   -------------------------
    Irrep   Nso     Nmo    
   -------------------------
     A        276     276 
   -------------------------
    Total     276     276
   -------------------------

  ==> Iterations <==

                           Total Energy        Delta E     RMS |[F,P]|

   @DF-RKS iter SAD:  -152.12701199482666   -1.52127e+02   0.00000e+00 
   @DF-RKS iter   1:  -152.48992607669143   -3.62914e-01   3.74456e-03 DIIS/ADIIS
   @DF-RKS iter   2:  -151.37764072920882    1.11229e+00   6.99413e-03 DIIS/ADIIS
   @DF-RKS iter   3:  -152.86053412894523   -1.48289e+00   2.85573e-04 DIIS/ADIIS
   @DF-RKS iter   4:  -152.86341303090393   -2.87890e-03   3.83125e-05 DIIS
   @DF-RKS iter   5:  -152.86344650387230   -3.34730e-05   1.35031e-05 DIIS
   @DF-RKS iter   6:  -152.86344931688944   -2.81302e-06   8.58683e-06 DIIS
   @DF-RKS iter   7:  -152.86345119788922   -1.88100e-06   1.10175e-06 DIIS
   @DF-RKS iter   8:  -152.86345122892669   -3.10375e-08   1.26181e-07 DIIS
   @DF-RKS iter   9:  -152.86345122936339   -4.36700e-10   3.47172e-08 DIIS
   @DF-RKS iter  10:  -152.86345122940071   -3.73177e-11   1.56435e-09 DIIS
   @DF-RKS iter  11:  -152.86345122940077   -5.68434e-14   2.03613e-10 DIIS
   @DF-RKS iter  12:  -152.86345122940054    2.27374e-13   5.40321e-11 DIIS
  Energy and wave function converged.


  ==> Post-Iterations <==

   Electrons on quadrature grid:
      Ntotal   =   19.9999965649 ; deviation = -3.435e-06 

    Orbital Energies [Eh]
    ---------------------

    Doubly Occupied:                                                      

       1A    -18.969477     2A    -18.967044     3A     -0.981493  
       4A     -0.979489     5A     -0.496518     6A     -0.495194  
       7A     -0.361513     8A     -0.357435     9A     -0.280293  
      10A     -0.278250  

    Virtual:                                                              

      11A     -0.016314    12A      0.000975    13A      0.033879  
      14A      0.040390    15A      0.058506    16A      0.060921  
      17A      0.083831    18A      0.090418    19A      0.099400  
      20A      0.112444    21A      0.121819    22A      0.128769  
      23A      0.141649    24A      0.149293    25A      0.163625  
      26A      0.166105    27A      0.174987    28A      0.185773  
      29A      0.208858    30A      0.216682    31A      0.226103  
      32A      0.235523    33A      0.246544    34A      0.263719  
      35A      0.268974    36A      0.286316    37A      0.308697  
      38A      0.314990    39A      0.326863    40A      0.332332  
      41A      0.342988    42A      0.349563    43A      0.353474  
      44A      0.366036    45A      0.368154    46A      0.381572  
      47A      0.395573    48A      0.399746    49A      0.435859  
      50A      0.438573    51A      0.477153    52A      0.488545  
      53A      0.525734    54A      0.539125    55A      0.560462  
      56A      0.589520    57A      0.615075    58A      0.618893  
      59A      0.624383    60A      0.640661    61A      0.646410  
      62A      0.672620    63A      0.678863    64A      0.698348  
      65A      0.738611    66A      0.765301    67A      0.770988  
      68A      0.778922    69A      0.799511    70A      0.801172  
      71A      0.812139    72A      0.830205    73A      0.834829  
      74A      0.843543    75A      0.859380    76A      0.867460  
      77A      0.883147    78A      0.890812    79A      0.900335  
      80A      0.919298    81A      0.924720    82A      0.937624  
      83A      0.945354    84A      0.961243    85A      0.962578  
      86A      0.980037    87A      0.995360    88A      1.013931  
      89A      1.020637    90A      1.040084    91A      1.052146  
      92A      1.056801    93A      1.072597    94A      1.083330  
      95A      1.095397    96A      1.132511    97A      1.139987  
      98A      1.163699    99A      1.170919   100A      1.180991  
     101A      1.203238   102A      1.233435   103A      1.264909  
     104A      1.305672   105A      1.318670   106A      1.355759  
     107A      1.371886   108A      1.386374   109A      1.406454  
     110A      1.431998   111A      1.442071   112A      1.452169  
     113A      1.520568   114A      1.531235   115A      1.548023  
     116A      1.554374   117A      1.580944   118A      1.617240  
     119A      1.690769   120A      1.710793   121A      1.739128  
     122A      1.777072   123A      1.804274   124A      1.812614  
     125A      1.814470   126A      1.857824   127A      1.880327  
     128A      1.920718   129A      1.955189   130A      2.006287  
     131A      2.040064   132A      2.071285   133A      2.097251  
     134A      2.146670   135A      2.174302   136A      2.187389  
     137A      2.216450   138A      2.259344   139A      2.273426  
     140A      2.285167   141A      2.300665   142A      2.339604  
     143A      2.356856   144A      2.367162   145A      2.397903  
     146A      2.406866   147A      2.438243   148A      2.504908  
     149A      2.537035   150A      2.544469   151A      2.555785  
     152A      2.589790   153A      2.591381   154A      2.612461  
     155A      2.660600   156A      2.673818   157A      2.707011  
     158A      2.738026   159A      2.738765   160A      2.763715  
     161A      2.798146   162A      2.829408   163A      2.899804  
     164A      3.003380   165A      3.066777   166A      3.136319  
     167A      3.206107   168A      3.279108   169A      3.348582  
     170A      3.372314   171A      3.416960   172A      3.543405  
     173A      3.551124   174A      3.606475   175A      3.648539  
     176A      3.754234   177A      3.871041   178A      3.904270  
     179A      3.922594   180A      3.977793   181A      4.003357  
     182A      4.090403   183A      4.099852   184A      4.156097  
     185A      4.187880   186A      4.207819   187A      4.255893  
     188A      4.276054   189A      4.293271   190A      4.313516  
     191A      4.329143   192A      4.340369   193A      4.386938  
     194A      4.429489   195A      4.436387   196A      4.497551  
     197A      4.527804   198A      4.534735   199A      4.592834  
     200A      4.681398   201A      4.690692   202A      4.768062  
     203A      4.832169   204A      4.876682   205A      5.002871  
     206A      5.024643   207A      5.041206   208A      5.061066  
     209A      5.080300   210A      5.127579   211A      5.161910  
     212A      5.172794   213A      5.187489   214A      5.224081  
     215A      5.319807   216A      5.331926   217A      5.373911  
     218A      5.393551   219A      5.489593   220A      5.535052  
     221A      5.585761   222A      5.602703   223A      5.673862  
     224A      5.815179   225A      5.932114   226A      6.022787  
     227A      6.068458   228A      6.270568   229A      6.278387  
     230A      6.355986   231A      6.440685   232A      6.508835  
     233A      6.530693   234A      6.677020   235A      6.715105  
     236A      6.846023   237A      6.876743   238A      6.909436  
     239A      6.927802   240A      6.955968   241A      6.990849  
     242A      6.993356   243A      7.011422   244A      7.048920  
     245A      7.069467   246A      7.087728   247A      7.114767  
     248A      7.132404   249A      7.183307   250A      7.275494  
     251A      7.351920   252A      7.589612   253A      7.686537  
     254A      7.689977   255A      7.726837   256A      7.800255  
     257A      7.838441   258A      8.160621   259A      8.280252  
     260A      8.386753   261A      8.542676   262A      8.584341  
     263A      8.793748   264A      9.031462   265A      9.791733  
     266A      9.916187   267A     10.062532   268A     10.234848  
     269A     11.099911   270A     11.725096   271A     12.203435  
     272A     13.475732   273A     13.938589   274A     15.260698  
     275A     15.754884   276A     65.239564  

    Final Occupation by Irrep:
              A 
    DOCC [    10 ]
    NA   [    10 ]
    NB   [    10 ]

  @DF-RKS Final Energy:  -152.86345122940054

   => Energetics <=

    Nuclear Repulsion Energy =             30.0622738465008972
    One-Electron Energy =                -269.4914729437871301
    Two-Electron Energy =                 105.1553337752610560
    DFT Exchange-Correlation Energy =     -18.5894547773753480
    Empirical Dispersion Energy =          -0.0001311300000000
    VV10 Nonlocal Energy =                  0.0000000000000000
    Total Energy =                       -152.8634512294005390

[...]
    DFT Exchange-Correlation Energy =      -9.2822827581938459
    Empirical Dispersion Energy =          -0.0000002000000000
    VV10 Nonlocal Energy =                  0.0000000000000000
    Total Energy =                        -76.4292989733306882

Computation Completed


Properties will be evaluated at   0.000000,   0.000000,   0.000000 [a0]

Properties computed using the SCF density matrix


 Multipole Moments:

 ------------------------------------------------------------------------------------
     Multipole            Electronic (a.u.)      Nuclear  (a.u.)        Total (a.u.)
 ------------------------------------------------------------------------------------

 L = 1.  Multiply by 2.5417464519 to convert [e a0] to [Debye]
 Dipole X            :         29.3005818          -29.7944579           -0.4938760
 Dipole Y            :         14.0782012          -14.5362044           -0.4580032
 Dipole Z            :         43.9121531          -43.8419962            0.0701569
 Magnitude           :                                                    0.6772019

 ------------------------------------------------------------------------------------

*** tstop() called on d-19-15-2 at Tue Sep 19 21:17:08 2023
Module time:
	user time   =      20.91 seconds =       0.35 minutes
	system time =       0.29 seconds =       0.00 minutes
	total time  =         23 seconds =       0.38 minutes
Total time:
	user time   =  120009.96 seconds =    2000.17 minutes
	system time =   61483.57 seconds =    1024.73 minutes
	total time  =     203324 seconds =    3388.73 minutes

    Psi4 stopped on: Tuesday, 19 September 2023 09:17PM
    Psi4 wall time for execution: 0:00:23.40


    -----------------------------------------------------------------------
          Psi4: An Open-Source Ab Initio Electronic Structure Package
                               Psi4 1.7 release

                         Git: Rev {HEAD} 6ce35a5 


    D. G. A. Smith, L. A. Burns, A. C. Simmonett, R. M. Parrish,
    M. C. Schieber, R. Galvelis, P. Kraus, H. Kruse, R. Di Remigio,
    A. Alenaizan, A. M. James, S. Lehtola, J. P. Misiewicz, M. Scheurer,
    R. A. Shaw, J. B. Schriber, Y. Xie, Z. L. Glick, D. A. Sirianni,
    J. S. O'Brien, J. M. Waldrop, A. Kumar, E. G. Hohenstein,
    B. P. Pritchard, B. R. Brooks, H. F. Schaefer III, A. Yu. Sokolov,
    K. Patkowski, A. E. DePrince III, U. Bozkaya, R. A. King,
    F. A. Evangelista, J. M. Turney, T. D. Crawford, C. D. Sherrill,
    J. Chem. Phys. 152(18) 184108 (2020). https://doi.org/10.1063/5.0006002

                            Additional Code Authors
    E. T. Seidl, C. L. Janssen, E. F. Valeev, M. L. Leininger,
    J. F. Gonthier, R. M. Richard, H. R. McAlexander, M. Saitow, X. Wang,
    P. Verma, M. H. Lechner, A. Jiang, S. Behnle, A. G. Heide,
    M. F. Herbst, and D. L. Poole

             Previous Authors, Complete List of Code Contributors,
                       and Citations for Specific Modules
    https://github.com/psi4/psi4/blob/master/codemeta.json
    https://github.com/psi4/psi4/graphs/contributors
    http://psicode.org/psi4manual/master/introduction.html#citing-psifour

    -----------------------------------------------------------------------


    Psi4 started on: Sunday, 17 September 2023 12:48PM

    Process ID: 258105
    Host:       d-19-15-2
    PSIDATADIR: /home/gridsan/kfisher/.conda/envs/p4env/share/psi4
    Memory:     18.6 GiB
    Threads:    1
    
  ==> Input QCSchema <==

--------------------------------------------------------------------------
{'driver': 'energy',
 'extras': {'psiapi': True, 'wfn_qcvars_only': True},
 'id': None,
 'keywords': {'D_CONVERGENCE': 1e-10, 'E_CONVERGENCE': 1e-10, 'function_kwargs': {'dft_functional': 'scan-d3zero2b'}},
 'model': {'basis': 'aug-cc-pvtz', 'method': 'scf'},
 'molecule': {'atom_labels': ['', '', '', '', '', ''],
              'atomic_numbers': [1, 1, 8, 1, 1, 8],
              'fix_com': True,
              'fix_orientation': True,
              'fix_symmetry': 'c1',
              'fragment_charges': [0.0, 0.0],
              'fragment_multiplicities': [1, 1],
              'fragments': [[0, 1, 2], [3, 4, 5]],
              'geometry': [-4.388251616239995, -0.9950845376226488, -3.490990206590787, -2.765629604772715,
                           -3.023031581376244, -5.108663705636899, -2.8300720813427542, -1.3147610402933072,
                           -4.405292788494148, 1.9006353632020063, -4.4440834990276015, -5.380682128005745,
                           0.8141248929721224, -7.034766718859087, -5.967688283480025, 0.5911819966772719,
                           -5.224075969749092, -6.3104047617092744],
              'mass_numbers': [1, 1, 16, 1, 1, 16],
              'masses': [1.00782503223, 1.00782503223, 15.99491461957, 1.00782503223, 1.00782503223, 15.99491461957],
              'molecular_charge': 0.0,
              'molecular_multiplicity': 1,
              'name': 'H4O2',
              'provenance': {'creator': 'QCElemental',
                             'routine': 'qcelemental.molparse.from_string',
                             'version': 'v0.25.1'},
              'real': [True, True, True, True, True, True],
              'schema_name': 'qcschema_molecule',
              'schema_version': 2,
              'symbols': ['H', 'H', 'O', 'H', 'H', 'O'],
              'validated': True},
 'protocols': {'stdout': True},
 'provenance': {'creator': 'QCElemental', 'routine': 'qcelemental.models.results', 'version': 'v0.25.1'},
 'schema_name': 'qcschema_input',
 'schema_version': 1}
--------------------------------------------------------------------------

Scratch directory: /home/gridsan/kfisher/scratch/

*** tstart() called on d-19-15-2
*** at Tue Sep 19 21:17:08 2023

   => Loading Basis Set <=

    Name: AUG-CC-PVTZ
    Role: ORBITAL
    Keyword: BASIS
    atoms 1-2, 4-5 entry H          line    40 file /home/gridsan/kfisher/.conda/envs/p4env/share/psi4/basis/aug-cc-pvtz.gbs 
    atoms 3, 6     entry O          line   331 file /home/gridsan/kfisher/.conda/envs/p4env/share/psi4/basis/aug-cc-pvtz.gbs 

   => SCAN-D3: Empirical Dispersion <=

    Grimme's -D3 (zero-damping) Dispersion Correction
    Grimme S.; Antony J.; Ehrlich S.; Krieg H. (2010), J. Chem. Phys., 132: 154104
    Parametrisation from:    J.G. Brandenburg, J. E. Bates, J. Sun, J.P. Perdew, Phys. Rev. B 94, 115144, 2016

        s6 =       1.000000
        s8 =       0.000000
       sr6 =       1.324000
    alpha6 =      14.000000
       sr8 =       1.000000


         ---------------------------------------------------------
                                   SCF
               by Justin Turney, Rob Parrish, Andy Simmonett
                          and Daniel G. A. Smith
                              RKS Reference
                        1 Threads,  19073 MiB Core
         ---------------------------------------------------------

  ==> Geometry <==

    Molecular point group: c1
    Full point group: C1

    Geometry (in Bohr), charge = 0, multiplicity = 1:

       Center              X                  Y                   Z               Mass       
    ------------   -----------------  -----------------  -----------------  -----------------
         H           -4.388251616240    -0.995084537623    -3.490990206591     1.007825032230
         H           -2.765629604773    -3.023031581376    -5.108663705637     1.007825032230
         O           -2.830072081343    -1.314761040293    -4.405292788494    15.994914619570
         H            1.900635363202    -4.444083499028    -5.380682128006     1.007825032230
         H            0.814124892972    -7.034766718859    -5.967688283480     1.007825032230
         O            0.591181996677    -5.224075969749    -6.310404761709    15.994914619570

  Running in c1 symmetry.

  Rotational constants: A =      0.29982  B =      0.03851  C =      0.03427 [cm^-1]
  Rotational constants: A =   8988.49077  B =   1154.53213  C =   1027.41319 [MHz]
  Nuclear repulsion =   35.936485724858827

  Charge       = 0
  Multiplicity = 1
  Electrons    = 20
  Nalpha       = 10
  Nbeta        = 10

  ==> Algorithm <==

  SCF Algorithm Type is DF.
  DIIS enabled.
  MOM disabled.
  Fractional occupation disabled.
  Guess Type is SAD.
  Energy threshold   = 1.00e-10
  Density threshold  = 1.00e-10
  Integral threshold = 1.00e-12

  ==> Primary Basis <==

  Basis Set: AUG-CC-PVTZ
    Blend: AUG-CC-PVTZ
    Number of shells: 64
    Number of basis functions: 184
    Number of Cartesian functions: 210
    Spherical Harmonics?: true
    Max angular momentum: 3

  ==> DFT Potential <==

   => Composite Functional: SCAN-D3ZERO2B <= 

    SCAN Meta-GGA XC Functional
(10.1103/PhysRevLett.115.036402)
    J. Sun, A. Ruzsinszky, J. P. Perdew  Phys. Rev. Lett. 115, 036402, 2015


    Deriv               =              1
    GGA                 =           TRUE
    Meta                =           TRUE

    Exchange Hybrid     =          FALSE
    MP2 Hybrid          =          FALSE

   => Exchange Functionals <=

    1.0000   XC_MGGA_X_SCAN

   => Correlation Functionals <=

    1.0000   XC_MGGA_C_SCAN

   => LibXC Density Thresholds  <==

    XC_MGGA_C_SCAN:  1.00E-15 
    XC_MGGA_X_SCAN:  1.00E-15 

   => Molecular Quadrature <=

    Radial Scheme          =       TREUTLER
    Pruning Scheme         =           NONE
    Nuclear Scheme         =       TREUTLER

    Blocking Scheme        =         OCTREE
    BS radius alpha        =              1
    Pruning alpha          =              1
    Radial Points          =             75
    Spherical Points       =            302
    Total Points           =         132630
    Total Blocks           =           1042
    Max Points             =            256
    Max Functions          =            184
    Weights Tolerance      =       1.00E-15

   => Loading Basis Set <=

    Name: (AUG-CC-PVTZ AUX)
    Role: JKFIT
    Keyword: DF_BASIS_SCF
    atoms 1-2, 4-5 entry H          line    70 file /home/gridsan/kfisher/.conda/envs/p4env/share/psi4/basis/aug-cc-pvtz-jkfit.gbs 
    atoms 3, 6     entry O          line   286 file /home/gridsan/kfisher/.conda/envs/p4env/share/psi4/basis/aug-cc-pvtz-jkfit.gbs 

  ==> Integral Setup <==

  DFHelper Memory: AOs need 0.105 GiB; user supplied 12.493 GiB. Using in-core AOs.

  ==> MemDFJK: Density-Fitted J/K Matrices <==

    J tasked:                   Yes
    K tasked:                    No
    wK tasked:                   No
    OpenMP threads:               1
    Memory [MiB]:             12792
    Algorithm:                 Core
    Schwarz Cutoff:           1E-12
    Mask sparsity (%):       2.3570
    Fitting Condition:        1E-10

   => Auxiliary Basis Set <=

  Basis Set: (AUG-CC-PVTZ AUX)
    Blend: AUG-CC-PVTZ-JKFIT
    Number of shells: 116
    Number of basis functions: 392
    Number of Cartesian functions: 482
    Spherical Harmonics?: true
    Max angular momentum: 4

  Cached 100.0% of DFT collocation blocks in 1.477 [GiB].

  Minimum eigenvalue in the overlap matrix is 2.3231760465E-04.
  Reciprocal condition number of the overlap matrix is 2.6725638221E-05.
    Using symmetric orthogonalization.

  ==> Pre-Iterations <==

  SCF Guess: Superposition of Atomic Densities via on-the-fly atomic UHF (no occupation information).

   -------------------------
    Irrep   Nso     Nmo    
   -------------------------
     A        184     184 
   -------------------------
    Total     184     184
   -------------------------

  ==> Iterations <==

                           Total Energy        Delta E     RMS |[F,P]|

   @DF-RKS iter SAD:  -152.14735978208014   -1.52147e+02   0.00000e+00 
   @DF-RKS iter   1:  -152.49943374947907   -3.52074e-01   5.57146e-03 DIIS/ADIIS
   @DF-RKS iter   2:  -151.38828106682865    1.11115e+00   1.04491e-02 DIIS/ADIIS
   @DF-RKS iter   3:  -152.86370839999131   -1.47543e+00   4.05464e-04 DIIS/ADIIS
   @DF-RKS iter   4:  -152.86520845635999   -1.50006e-03   3.17782e-04 DIIS/ADIIS
   @DF-RKS iter   5:  -152.86628062752501   -1.07217e-03   8.79049e-05 DIIS
   @DF-RKS iter   6:  -152.86636880135370   -8.81738e-05   1.64810e-05 DIIS
   @DF-RKS iter   7:  -152.86637232737030   -3.52602e-06   1.76235e-06 DIIS
   @DF-RKS iter   8:  -152.86637236448473   -3.71144e-08   3.96226e-07 DIIS
   @DF-RKS iter   9:  -152.86637236648065   -1.99591e-09   5.23183e-08 DIIS
   @DF-RKS iter  10:  -152.86637236651862   -3.79714e-11   5.33727e-09 DIIS
   @DF-RKS iter  11:  -152.86637236651893   -3.12639e-13   1.13840e-09 DIIS
   @DF-RKS iter  12:  -152.86637236651882    1.13687e-13   1.74020e-10 DIIS
   @DF-RKS iter  13:  -152.86637236651907   -2.55795e-13   3.72920e-11 DIIS
  Energy and wave function converged.


  ==> Post-Iterations <==

   Electrons on quadrature grid:
      Ntotal   =   20.0000016393 ; deviation = 1.639e-06 

    Orbital Energies [Eh]
    ---------------------

    Doubly Occupied:                                                      

       1A    -18.980113     2A    -18.947891     3A     -0.992707  
       4A     -0.951725     5A     -0.508994     6A     -0.488579  
       7A     -0.371672     8A     -0.325472     9A     -0.292666  
      10A     -0.259021  

    Virtual:                                                              

      11A     -0.018218    12A      0.012116    13A      0.032767  
      14A      0.052043    15A      0.082165    16A      0.097585  
      17A      0.099709    18A      0.123805    19A      0.129091  
      20A      0.139787    21A      0.148641    22A      0.176025  
      23A      0.177325    24A      0.197009    25A      0.207649  
      26A      0.223906    27A      0.249157    28A      0.260127  
      29A      0.270729    30A      0.288680    31A      0.326417  
      32A      0.333411    33A      0.337460    34A      0.354540  
      35A      0.368575    36A      0.370586    37A      0.375382  
      38A      0.439649    39A      0.475570    40A      0.529679  
      41A      0.540217    42A      0.573111    43A      0.579983  
      44A      0.624112    45A      0.631546    46A      0.638209  
      47A      0.665549    48A      0.686210    49A      0.703626  
      50A      0.745583    51A      0.755501    52A      0.783888  
      53A      0.788413    54A      0.815755    55A      0.831170  
      56A      0.846428    57A      0.860256    58A      0.875410  
      59A      0.890730    60A      0.909359    61A      0.929287  
      62A      0.955337    63A      0.959684    64A      0.968933  
      65A      0.984875    66A      1.014086    67A      1.018848  
      68A      1.050851    69A      1.071347    70A      1.090286  
      71A      1.123304    72A      1.132092    73A      1.167344  
      74A      1.179497    75A      1.239611    76A      1.262025  
      77A      1.296398    78A      1.391372    79A      1.438136  
      80A      1.459753    81A      1.478147    82A      1.539271  
      83A      1.564409    84A      1.603947    85A      1.655842  
      86A      1.661938    87A      1.705596    88A      1.813908  
      89A      1.839724    90A      1.875300    91A      1.960209  
      92A      2.007691    93A      2.081307    94A      2.104783  
      95A      2.129081    96A      2.161399    97A      2.191362  
      98A      2.238353    99A      2.245009   100A      2.278683  
     101A      2.300822   102A      2.316311   103A      2.354464  
     104A      2.374732   105A      2.418732   106A      2.428499  
     107A      2.482887   108A      2.553466   109A      2.590797  
     110A      2.600201   111A      2.634474   112A      2.667571  
     113A      2.711160   114A      2.753278   115A      2.819073  
     116A      2.878139   117A      3.453807   118A      3.494493  
     119A      3.562993   120A      3.669736   121A      3.798000  
     122A      3.896033   123A      3.936554   124A      3.956561  
     125A      4.067005   126A      4.086847   127A      4.146727  
     128A      4.159774   129A      4.230773   130A      4.242547  
     131A      4.274448   132A      4.308024   133A      4.312560  
     134A      4.316953   135A      4.347559   136A      4.370536  
     137A      4.431516   138A      4.460994   139A      4.495325  
     140A      4.579624   141A      4.605143   142A      4.741524  
     143A      4.991435   144A      5.023655   145A      5.031109  
     146A      5.059183   147A      5.112666   148A      5.127144  
     149A      5.172732   150A      5.210489   151A      5.262989  
     152A      5.358192   153A      5.542675   154A      5.617473  
     155A      5.833966   156A      5.997135   157A      6.263254  
     158A      6.328594   159A      6.472055   160A      6.500859  
     161A      6.564461   162A      6.655392   163A      6.817433  
     164A      6.884471   165A      6.900851   166A      6.934329  
     167A      6.951383   168A      6.980137   169A      6.993366  
     170A      7.008203   171A      7.043383   172A      7.067813  
     173A      7.103368   174A      7.188413   175A      7.234269  
     176A      7.350849   177A      7.566654   178A      7.581484  
     179A      7.680378   180A      7.743137   181A      8.391430  
     182A      8.533536   183A     14.968028   184A     15.263857  

    Final Occupation by Irrep:
              A 
    DOCC [    10 ]
    NA   [    10 ]
    NB   [    10 ]

  @DF-RKS Final Energy:  -152.86637236651907

   => Energetics <=

    Nuclear Repulsion Energy =             35.9364857248588265
    One-Electron Energy =                -281.3460573442666828
    Two-Electron Energy =                 111.1265203188328599
    DFT Exchange-Correlation Energy =     -18.5831381159440454
    Empirical Dispersion Energy =          -0.0001829500000000
    VV10 Nonlocal Energy =                  0.0000000000000000
    Total Energy =                       -152.8663723665190730

Computation Completed


Properties will be evaluated at   0.000000,   0.000000,   0.000000 [a0]

Properties computed using the SCF density matrix


 Multipole Moments:

 ------------------------------------------------------------------------------------
     Multipole            Electronic (a.u.)      Nuclear  (a.u.)        Total (a.u.)
 ------------------------------------------------------------------------------------

 L = 1.  Multiply by 2.5417464519 to convert [e a0] to [Debye]
 Dipole X            :         22.4606992          -22.3502416            0.1104576
 Dipole Y            :         66.9476723          -67.8076624           -0.8599901
 Dipole Z            :        106.1113762         -105.6736047            0.4377714
 Magnitude           :                                                    0.9713020

 ------------------------------------------------------------------------------------

*** tstop() called on d-19-15-2 at Tue Sep 19 21:17:37 2023
Module time:
	user time   =      24.72 seconds =       0.41 minutes
	system time =       0.11 seconds =       0.00 minutes
	total time  =         29 seconds =       0.48 minutes
Total time:
	user time   =  120034.75 seconds =    2000.58 minutes
	system time =   61483.68 seconds =    1024.73 minutes
	total time  =     203353 seconds =    3389.22 minutes

    Psi4 stopped on: Tuesday, 19 September 2023 09:17PM
    Psi4 wall time for execution: 0:00:28.45


  //>>>>>>>>>>>>>>>>>>>>>>>>>>>>>>>>>>>//
  //          ManyBody Results         //
  //<<<<<<<<<<<<<<<<<<<<<<<<<<<<<<<<<<<//


   ==> N-Body: Counterpoise Corrected (CP) energies <==

        n-Body     Total Energy            Interaction Energy                          N-body Contribution to Interaction Energy
                   [Eh]                    [Eh]                  [kcal/mol]            [Eh]                  [kcal/mol]
             1  N/A                         0.000000000000        0.000000000000        0.000000000000        0.000000000000
  FULL/RTN   2  N/A                        -0.006403552082       -4.018289597420       -0.006403552082       -4.018289597420


