Scratch directory: /home/gridsan/kfisher/scratch/

  //>>>>>>>>>>>>>>>>>>>>>>>>>>>>>>>>>>>>>>>>//
  // ManyBody Setup: N-Body Levels [1, 2, 3]//
  //<<<<<<<<<<<<<<<<<<<<<<<<<<<<<<<<<<<<<<<<//

        Number of 1-body computations:     3
        Number of 2-body computations:     3
        Number of 3-body computations:     1

    -----------------------------------------------------------------------
          Psi4: An Open-Source Ab Initio Electronic Structure Package
                               Psi4 1.7 release

                         Git: Rev {HEAD} 6ce35a5 


    D. G. A. Smith, L. A. Burns, A. C. Simmonett, R. M. Parrish,
    M. C. Schieber, R. Galvelis, P. Kraus, H. Kruse, R. Di Remigio,
    A. Alenaizan, A. M. James, S. Lehtola, J. P. Misiewicz, M. Scheurer,
    R. A. Shaw, J. B. Schriber, Y. Xie, Z. L. Glick, D. A. Sirianni,
    J. S. O'Brien, J. M. Waldrop, A. Kumar, E. G. Hohenstein,
    B. P. Pritchard, B. R. Brooks, H. F. Schaefer III, A. Yu. Sokolov,
    K. Patkowski, A. E. DePrince III, U. Bozkaya, R. A. King,
    F. A. Evangelista, J. M. Turney, T. D. Crawford, C. D. Sherrill,
    J. Chem. Phys. 152(18) 184108 (2020). https://doi.org/10.1063/5.0006002

                            Additional Code Authors
    E. T. Seidl, C. L. Janssen, E. F. Valeev, M. L. Leininger,
    J. F. Gonthier, R. M. Richard, H. R. McAlexander, M. Saitow, X. Wang,
    P. Verma, M. H. Lechner, A. Jiang, S. Behnle, A. G. Heide,
    M. F. Herbst, and D. L. Poole

             Previous Authors, Complete List of Code Contributors,
                       and Citations for Specific Modules
    https://github.com/psi4/psi4/blob/master/codemeta.json
    https://github.com/psi4/psi4/graphs/contributors
    http://psicode.org/psi4manual/master/introduction.html#citing-psifour

    -----------------------------------------------------------------------


    Psi4 started on: Sunday, 17 September 2023 12:48PM

    Process ID: 258105
    Host:       d-19-15-2
    PSIDATADIR: /home/gridsan/kfisher/.conda/envs/p4env/share/psi4
    Memory:     18.6 GiB
    Threads:    1
    
  ==> Input QCSchema <==

--------------------------------------------------------------------------
{'driver': 'energy',
 'extras': {'psiapi': True, 'wfn_qcvars_only': True},
 'id': None,
 'keywords': {'D_CONVERGENCE': 1e-10, 'E_CONVERGENCE': 1e-10, 'function_kwargs': {}},
 'model': {'basis': 'aug-cc-pvtz', 'method': 'ccsd(t)'},
 'molecule': {'atom_labels': ['', '', '', '', '', '', '', '', ''],
              'atomic_numbers': [1, 1, 8, 1, 1, 8, 1, 1, 8],
              'fix_com': True,
              'fix_orientation': True,
              'fix_symmetry': 'c1',
              'fragment_charges': [0.0, 0.0, 0.0],
              'fragment_multiplicities': [1, 1, 1],
              'fragments': [[0, 1, 2], [3, 4, 5], [6, 7, 8]],
              'geometry': [-1.2549376401889865, 0.6299892234170613, -1.8221466468277456, 0.01344037471113873,
                           2.6874314904820276, -0.31943308704843854, -0.030847700299361038, 0.8712250276543073,
                           -0.49871917134499827, -4.388251616239995, -0.9950845376226488, -3.490990206590787,
                           -2.765629604772715, -3.023031581376244, -5.108663705636899, -2.8300720813427542,
                           -1.3147610402933072, -4.405292788494148, 1.9006353632020063, -4.4440834990276015,
                           -5.380682128005745, 0.8141248929721224, -7.034766718859087, -5.967688283480025,
                           0.5911819966772719, -5.224075969749092, -6.3104047617092744],
              'mass_numbers': [1, 1, 16, 1, 1, 16, 1, 1, 16],
              'masses': [1.00782503223, 1.00782503223, 15.99491461957, 1.00782503223, 1.00782503223, 15.99491461957,
                         1.00782503223, 1.00782503223, 15.99491461957],
              'molecular_charge': 0.0,
              'molecular_multiplicity': 1,
              'name': 'H6O3',
              'provenance': {'creator': 'QCElemental',
                             'routine': 'qcelemental.molparse.from_string',
                             'version': 'v0.25.1'},
              'real': [True, True, True, False, False, False, False, False, False],
              'schema_name': 'qcschema_molecule',
              'schema_version': 2,
              'symbols': ['H', 'H', 'O', 'H', 'H', 'O', 'H', 'H', 'O'],
              'validated': True},
 'protocols': {'stdout': True},
 'provenance': {'creator': 'QCElemental', 'routine': 'qcelemental.models.results', 'version': 'v0.25.1'},
 'schema_name': 'qcschema_input',
 'schema_version': 1}
--------------------------------------------------------------------------

Scratch directory: /home/gridsan/kfisher/scratch/

*** tstart() called on d-19-15-2
*** at Tue Sep 19 21:17:37 2023

   => Loading Basis Set <=

    Name: AUG-CC-PVTZ
    Role: ORBITAL
    Keyword: BASIS
    atoms 1-2, 4-5, 7-8 entry H          line    40 file /home/gridsan/kfisher/.conda/envs/p4env/share/psi4/basis/aug-cc-pvtz.gbs 
    atoms 3, 6, 9       entry O          line   331 file /home/gridsan/kfisher/.conda/envs/p4env/share/psi4/basis/aug-cc-pvtz.gbs 


         ---------------------------------------------------------
                                   SCF
               by Justin Turney, Rob Parrish, Andy Simmonett
                          and Daniel G. A. Smith
                              RHF Reference
                        1 Threads,  19073 MiB Core
         ---------------------------------------------------------

  ==> Geometry <==

    Molecular point group: c1
    Full point group: C1

    Geometry (in Bohr), charge = 0, multiplicity = 1:

       Center              X                  Y                   Z               Mass       
    ------------   -----------------  -----------------  -----------------  -----------------
         H           -1.254937640189     0.629989223417    -1.822146646828     1.007825032230
         H            0.013440374711     2.687431490482    -0.319433087048     1.007825032230
         O           -0.030847700299     0.871225027654    -0.498719171345    15.994914619570
      Gh(H)          -4.388251616240    -0.995084537623    -3.490990206591     1.007825032230
      Gh(H)          -2.765629604773    -3.023031581376    -5.108663705637     1.007825032230
      Gh(O)          -2.830072081343    -1.314761040293    -4.405292788494    15.994914619570
      Gh(H)           1.900635363202    -4.444083499028    -5.380682128006     1.007825032230
      Gh(H)           0.814124892972    -7.034766718859    -5.967688283480     1.007825032230
      Gh(O)           0.591181996677    -5.224075969749    -6.310404761709    15.994914619570

  Running in c1 symmetry.

  Rotational constants: A =      0.26599  B =      0.03804  C =      0.03402 [cm^-1]
  Rotational constants: A =   7974.28822  B =   1140.41302  C =   1019.97555 [MHz]
  Nuclear repulsion =    9.132046567208473

  Charge       = 0
  Multiplicity = 1
  Electrons    = 10
  Nalpha       = 5
  Nbeta        = 5

  ==> Algorithm <==

  SCF Algorithm Type is PK.
  DIIS enabled.
  MOM disabled.
  Fractional occupation disabled.
  Guess Type is SAD.
  Energy threshold   = 1.00e-10
  Density threshold  = 1.00e-10
  Integral threshold = 1.00e-12

  ==> Primary Basis <==

  Basis Set: AUG-CC-PVTZ
    Blend: AUG-CC-PVTZ
    Number of shells: 96
    Number of basis functions: 276
    Number of Cartesian functions: 315
    Spherical Harmonics?: true
    Max angular momentum: 3

  ==> Integral Setup <==

  Using in-core PK algorithm.
   Calculation information:
      Number of atoms:                   9
      Number of AO shells:              96
      Number of primitives:            156
      Number of atomic orbitals:       315
      Number of basis functions:       276

      Integral cutoff                 1.00e-12
      Number of threads:                 1

  Performing in-core PK
  Using 1461265302 doubles for integral storage.
  We computed 9359766 shell quartets total.
  Whereas there are 10841496 unique shell quartets.

  ==> DiskJK: Disk-Based J/K Matrices <==

    J tasked:                  Yes
    K tasked:                  Yes
    wK tasked:                  No
    Memory [MiB]:            14305
    Schwarz Cutoff:          1E-12

    OpenMP threads:              1

  Minimum eigenvalue in the overlap matrix is 1.8856633185E-04.
  Reciprocal condition number of the overlap matrix is 1.8345003175E-05.
    Using symmetric orthogonalization.

  ==> Pre-Iterations <==

  SCF Guess: Superposition of Atomic Densities via on-the-fly atomic UHF (no occupation information).

   -------------------------
    Irrep   Nso     Nmo    
   -------------------------
     A        276     276 
   -------------------------
    Total     276     276
   -------------------------

  ==> Iterations <==

                        Total Energy        Delta E     RMS |[F,P]|

   @RHF iter SAD:   -75.47185012494407   -7.54719e+01   0.00000e+00 
   @RHF iter   1:   -75.97518358069692   -5.03333e-01   1.69612e-03 DIIS/ADIIS
   @RHF iter   2:   -76.02757323077249   -5.23897e-02   1.16439e-03 DIIS/ADIIS
   @RHF iter   3:   -76.05950334958470   -3.19301e-02   7.92008e-05 DIIS
   @RHF iter   4:   -76.05989829167891   -3.94942e-04   1.91096e-05 DIIS
   @RHF iter   5:   -76.05992364064943   -2.53490e-05   4.38844e-06 DIIS
   @RHF iter   6:   -76.05992574224180   -2.10159e-06   9.56932e-07 DIIS
   @RHF iter   7:   -76.05992585147806   -1.09236e-07   1.68721e-07 DIIS
   @RHF iter   8:   -76.05992585443386   -2.95580e-09   2.82225e-08 DIIS
   @RHF iter   9:   -76.05992585449872   -6.48583e-11   6.92797e-09 DIIS
   @RHF iter  10:   -76.05992585450279   -4.07852e-12   1.04827e-09 DIIS
   @RHF iter  11:   -76.05992585450259    1.98952e-13   1.59634e-10 DIIS
   @RHF iter  12:   -76.05992585450313   -5.40012e-13   2.80894e-11 DIIS
  Energy and wave function converged.


  ==> Post-Iterations <==

    Orbital Energies [Eh]
    ---------------------

    Doubly Occupied:                                                      

       1A    -20.569193     2A     -1.351268     3A     -0.710440  
       4A     -0.587121     5A     -0.510312  

    Virtual:                                                              

       6A      0.021075     7A      0.037099     8A      0.045265  
       9A      0.059875    10A      0.065451    11A      0.080040  
      12A      0.107532    13A      0.121290    14A      0.132339  
      15A      0.144761    16A      0.154473    17A      0.170048  
      18A      0.176792    19A      0.181668    20A      0.189042  
      21A      0.206169    22A      0.219990    23A      0.230758  
      24A      0.256650    25A      0.268054    26A      0.284724  
      27A      0.291714    28A      0.304369    29A      0.311940  
      30A      0.320341    31A      0.329582    32A      0.340244  
      33A      0.350539    34A      0.358716    35A      0.371793  
      36A      0.379709    37A      0.390344    38A      0.393785  
      39A      0.405731    40A      0.409555    41A      0.432060  
      42A      0.435830    43A      0.458124    44A      0.474159  
      45A      0.486169    46A      0.498654    47A      0.569695  
      48A      0.618529    49A      0.661882    50A      0.677279  
      51A      0.697340    52A      0.716740    53A      0.720316  
      54A      0.745720    55A      0.749097    56A      0.766839  
      57A      0.782308    58A      0.791405    59A      0.795217  
      60A      0.799430    61A      0.812034    62A      0.832779  
      63A      0.840951    64A      0.846911    65A      0.860653  
      66A      0.873432    67A      0.885992    68A      0.904924  
      69A      0.910005    70A      0.919907    71A      0.935586  
      72A      0.949534    73A      0.952070    74A      0.959958  
      75A      0.977759    76A      0.985532    77A      0.994073  
      78A      1.011635    79A      1.020863    80A      1.029364  
      81A      1.040493    82A      1.055364    83A      1.071443  
      84A      1.077704    85A      1.095079    86A      1.113361  
      87A      1.116017    88A      1.135022    89A      1.136455  
      90A      1.162079    91A      1.193971    92A      1.207767  
      93A      1.221191    94A      1.244519    95A      1.257871  
      96A      1.284344    97A      1.305643    98A      1.323089  
      99A      1.360998   100A      1.394284   101A      1.400082  
     102A      1.414304   103A      1.492205   104A      1.501766  
     105A      1.513227   106A      1.541089   107A      1.556225  
     108A      1.573034   109A      1.609230   110A      1.626773  
     111A      1.652717   112A      1.708739   113A      1.760382  
     114A      1.786956   115A      1.805188   116A      1.836271  
     117A      1.837667   118A      1.853484   119A      1.859002  
     120A      1.885790   121A      1.907320   122A      1.925760  
     123A      1.976805   124A      2.025534   125A      2.068319  
     126A      2.101587   127A      2.121241   128A      2.281442  
     129A      2.307007   130A      2.396433   131A      2.415053  
     132A      2.436645   133A      2.448384   134A      2.468435  
     135A      2.493200   136A      2.506276   137A      2.521152  
     138A      2.533591   139A      2.552211   140A      2.559849  
     141A      2.576448   142A      2.596734   143A      2.649781  
     144A      2.660496   145A      2.682408   146A      2.694947  
     147A      2.723586   148A      2.761685   149A      2.789007  
     150A      2.821999   151A      2.844866   152A      2.871276  
     153A      2.898729   154A      2.970427   155A      2.983326  
     156A      3.006843   157A      3.056596   158A      3.159372  
     159A      3.182980   160A      3.188231   161A      3.223929  
     162A      3.257215   163A      3.290482   164A      3.308743  
     165A      3.333412   166A      3.376786   167A      3.414261  
     168A      3.454341   169A      3.556601   170A      3.598968  
     171A      3.717652   172A      3.742718   173A      3.781958  
     174A      4.055343   175A      4.077844   176A      4.199996  
     177A      4.243997   178A      4.307236   179A      4.323402  
     180A      4.370816   181A      4.382817   182A      4.401130  
     183A      4.424882   184A      4.461595   185A      4.484352  
     186A      4.510370   187A      4.531856   188A      4.620695  
     189A      4.629880   190A      4.659971   191A      4.671106  
     192A      4.676555   193A      4.752998   194A      4.776285  
     195A      4.830192   196A      4.902566   197A      4.916766  
     198A      4.989440   199A      5.004344   200A      5.019235  
     201A      5.046422   202A      5.069847   203A      5.130880  
     204A      5.145197   205A      5.195877   206A      5.255694  
     207A      5.316701   208A      5.332590   209A      5.445277  
     210A      5.464907   211A      5.546357   212A      5.564691  
     213A      5.630799   214A      5.638986   215A      5.701726  
     216A      5.716293   217A      5.748275   218A      5.879185  
     219A      5.902270   220A      6.199134   221A      6.256186  
     222A      6.293938   223A      6.351133   224A      6.423514  
     225A      6.544797   226A      6.631363   227A      6.783895  
     228A      6.819553   229A      6.934957   230A      7.069183  
     231A      7.082306   232A      7.159426   233A      7.280208  
     234A      7.329861   235A      7.347123   236A      7.404060  
     237A      7.479461   238A      7.665985   239A      7.726296  
     240A      7.782248   241A      7.819512   242A      7.861589  
     243A      7.974114   244A      8.001215   245A      8.086878  
     246A      8.160331   247A      8.170733   248A      8.258908  
     249A      8.314385   250A      8.345379   251A      8.715436  
     252A      8.735386   253A      8.819244   254A      8.835687  
     255A      8.986293   256A      9.752531   257A      9.811057  
     258A      9.932893   259A      9.966356   260A     10.020721  
     261A     10.065520   262A     10.230015   263A     10.241782  
     264A     11.081331   265A     11.197574   266A     11.738467  
     267A     11.821110   268A     12.159343   269A     12.237253  
     270A     13.469472   271A     13.508904   272A     13.845634  
     273A     13.930705   274A     16.388311   275A     64.719964  
     276A     65.340201  

    Final Occupation by Irrep:
              A 
    DOCC [     5 ]
    NA   [     5 ]
    NB   [     5 ]

  @RHF Final Energy:   -76.05992585450313

   => Energetics <=

    Nuclear Repulsion Energy =              9.1320465672084730
    One-Electron Energy =                -122.9272780992777712
    Two-Electron Energy =                  37.7353056775661528
    Total Energy =                        -76.0599258545031489

Computation Completed


Properties will be evaluated at   0.000000,   0.000000,   0.000000 [a0]

Properties computed using the SCF density matrix


 Multipole Moments:

 ------------------------------------------------------------------------------------
     Multipole            Electronic (a.u.)      Nuclear  (a.u.)        Total (a.u.)
 ------------------------------------------------------------------------------------

 L = 1.  Multiply by 2.5417464519 to convert [e a0] to [Debye]
 Dipole X            :          1.0762393           -1.4882789           -0.4120396
 Dipole Y            :         -9.7382711           10.2872209            0.5489498
 Dipole Z            :          5.7316704           -6.1313331           -0.3996627
 Magnitude           :                                                    0.7942624

 ------------------------------------------------------------------------------------

*** tstop() called on d-19-15-2 at Tue Sep 19 21:18:57 2023
Module time:
	user time   =      76.78 seconds =       1.28 minutes
	system time =       2.18 seconds =       0.04 minutes
	total time  =         80 seconds =       1.33 minutes
Total time:
	user time   =  120111.71 seconds =    2001.86 minutes
	system time =   61485.86 seconds =    1024.76 minutes
	total time  =     203433 seconds =    3390.55 minutes
 MINTS: Wrapper to libmints.
   by Justin Turney

   Calculation information:
      Number of threads:                 1
      Number of atoms:                   9
      Number of AO shells:              96
      Number of SO shells:              96
      Number of primitives:            156
      Number of atomic orbitals:       315
      Number of basis functions:       276

      Number of irreps:                  1
      Integral cutoff                 1.00e-12
      Number of functions per irrep: [ 276 ]

 OEINTS: Overlap, kinetic, potential, dipole, and quadrupole integrals
         stored in file 35.

      Computing two-electron integrals...done
      Computed 581721423 non-zero two-electron integrals.
        Stored in file 33.


*** tstart() called on d-19-15-2
*** at Tue Sep 19 21:19:55 2023


	Wfn Parameters:
	--------------------
	Wavefunction         = CCSD_T
	Number of irreps     = 1
	Number of MOs        = 276
	Number of active MOs = 276
	AO-Basis             = NONE
	Semicanonical        = false
	Reference            = RHF
	Print Level          = 1

	IRREP	# MOs	# FZDC	# DOCC	# SOCC	# VIRT	# FZVR
	-----	-----	------	------	------	------	------
	 A	   276	    0	    5	    0	    271	    0
	Transforming integrals...
	IWL integrals will be deleted.
	(OO|OO)...
	Presorting SO-basis two-electron integrals.
	Sorting File: SO Ints (nn|nn) nbuckets = 1
	Constructing frozen core operators
	Starting first half-transformation.
	Sorting half-transformed integrals.
	First half integral transformation complete.
	Starting second half-transformation.
	Two-electron integral transformation complete.
	(OO|OV)...
	Starting second half-transformation.
	Two-electron integral transformation complete.
	(OO|VV)...
	Starting second half-transformation.
	Two-electron integral transformation complete.
	(OV|OO)...
	Starting first half-transformation.
	Sorting half-transformed integrals.
	First half integral transformation complete.
	Starting second half-transformation.
	Two-electron integral transformation complete.
	(OV|OV)...
	Starting second half-transformation.
	Two-electron integral transformation complete.
	(OV|VV)...
	Starting second half-transformation.
	Two-electron integral transformation complete.
	(VV|OO)...
	Starting first half-transformation.
	Sorting half-transformed integrals.
	First half integral transformation complete.
	Starting second half-transformation.
	Two-electron integral transformation complete.
	(VV|OV)...
	Starting second half-transformation.
	Two-electron integral transformation complete.
	(VV|VV)...
	Starting second half-transformation.
	Two-electron integral transformation complete.
	Frozen core energy     =      0.00000000000000

	Size of irrep 0 of <ab|cd> integrals:   5393.580 (MW) /  43148.644 (MB)
	Total:                                  5393.580 (MW) /  43148.644 (MB)

	Size of irrep 0 of <ia|bc> integrals:     99.513 (MW) /    796.100 (MB)
	Total:                                    99.513 (MW) /    796.100 (MB)

	Size of irrep 0 of tijab amplitudes:       1.836 (MW) /     14.688 (MB)
	Total:                                     1.836 (MW) /     14.688 (MB)

	Nuclear Rep. energy          =      9.13204656720847
	SCF energy                   =    -76.05992585450313
	One-electron energy          =   -122.92727810759780
	Two-electron energy          =     37.73530568588640
	Reference energy             =    -76.05992585450292

*** tstop() called on d-19-15-2 at Tue Sep 19 21:33:30 2023
Module time:
	user time   =     501.70 seconds =       8.36 minutes
	system time =     265.48 seconds =       4.42 minutes
	total time  =        815 seconds =      13.58 minutes
Total time:
	user time   =  120655.41 seconds =    2010.92 minutes
	system time =   61766.36 seconds =    1029.44 minutes
	total time  =     204306 seconds =    3405.10 minutes
            **************************
            *                        *
            *        CCENERGY        *
            *                        *
            **************************

    Nuclear Rep. energy (wfn)     =    9.132046567208473
    SCF energy          (wfn)     =  -76.059925854503135
    Reference energy    (file100) =  -76.059925854502922

    Input parameters:
    -----------------
    Wave function   =     CCSD_T
    Reference wfn   =     RHF
    Brueckner       =     No
    Memory (Mbytes) =     20000.0
    Maxiter         =     50
    R_Convergence   =     1.0e-07
    E_Convergence   =     1.0e-10
    Restart         =     Yes
    DIIS            =     Yes
    AO Basis        =     NONE
    ABCD            =     NEW
    Cache Level     =     2
    Cache Type      =     LOW
    Print Level     =     1
    Num. of threads =     1
    # Amps to Print =     10
    Print MP2 Amps? =     No
    Analyze T2 Amps =     No
    Print Pair Ener =     No
    Local CC        =     No
    SCS-MP2         =     False
    SCSN-MP2        =     False
    SCS-CCSD        =     False

MP2 correlation energy -0.2848241659312757
                Solving CC Amplitude Equations
                ------------------------------
  Iter             Energy              RMS        T1Diag      D1Diag    New D1Diag    D2Diag
  ----     ---------------------    ---------   ----------  ----------  ----------   --------
     0        -0.284824165931276    0.000e+00    0.000000    0.000000    0.000000    0.118372
     1        -0.283051051581464    3.561e-02    0.007633    0.017212    0.017212    0.120900
     2        -0.288121554527790    1.256e-02    0.007484    0.017028    0.017028    0.125412
     3        -0.289473155684992    4.908e-03    0.008680    0.020288    0.020288    0.127575
     4        -0.289341183109747    1.060e-03    0.008837    0.020758    0.020758    0.127757
     5        -0.289351990265963    3.965e-04    0.008922    0.021056    0.021056    0.127810
     6        -0.289359120589188    1.057e-04    0.008944    0.021141    0.021141    0.127808
     7        -0.289357441909803    3.844e-05    0.008949    0.021164    0.021164    0.127799
     8        -0.289356764123252    1.156e-05    0.008951    0.021170    0.021170    0.127797
     9        -0.289356868948567    4.158e-06    0.008951    0.021173    0.021173    0.127797
    10        -0.289356684547892    1.460e-06    0.008951    0.021173    0.021173    0.127797
    11        -0.289356668498715    4.886e-07    0.008951    0.021173    0.021173    0.127797
    12        -0.289356659710828    2.042e-07    0.008951    0.021173    0.021173    0.127797
    13        -0.289356655098552    7.918e-08    0.008951    0.021173    0.021173    0.127797
    14        -0.289356654657489    3.042e-08    0.008951    0.021173    0.021173    0.127797
    15        -0.289356654977591    1.069e-08    0.008951    0.021173    0.021173    0.127797
    16        -0.289356654998312    4.026e-09    0.008951    0.021173    0.021173    0.127797
    17        -0.289356654996160    1.390e-09    0.008951    0.021173    0.021173    0.127797

    Iterations converged.


    Largest TIA Amplitudes:
              4  13         0.0095783057
              4  24         0.0057812052
              4   9        -0.0057764915
              4  15        -0.0056855849
              4  39        -0.0047221360
              3  10         0.0044573811
              3   6        -0.0044278933
              4  25         0.0042354196
              4  36        -0.0040803719
              4   3        -0.0040306746

    Largest TIjAb Amplitudes:
      2   2  42  42        -0.0136224869
      2   2  37  37        -0.0114277542
      3   3  42  42        -0.0104640156
      3   3  37  37        -0.0074641695
      4   4 123 123        -0.0070755919
      2   2  37  42        -0.0070568602
      2   2  42  37        -0.0070568602
      4   4  49  49        -0.0070378151
      0   0 268 268        -0.0066453358
      4   4 127 127        -0.0065274600

    SCF energy       (wfn)                    =  -76.059925854503135
    Reference energy (file100)                =  -76.059925854502922

    Opposite-spin MP2 correlation energy      =   -0.216290657636730
    Same-spin MP2 correlation energy          =   -0.068533508294545
    Singles MP2 correlation energy            =   -0.000000000000000
    MP2 correlation energy                    =   -0.284824165931276
      * MP2 total energy                      =  -76.344750020434191

    Opposite-spin CCSD correlation energy     =   -0.228305413642731
    Same-spin CCSD correlation energy         =   -0.061051241353429
    Singles CCSD correlation energy           =    0.000000000000000
    CCSD correlation energy                   =   -0.289356654996160
      * CCSD total energy                     =  -76.349282509499076

            **************************
            *                        *
            *        CCTRIPLES       *
            *                        *
            **************************


    Wave function   =    CCSD_T
    Reference wfn   =      RHF

    Nuclear Rep. energy (wfn)                =    9.132046567208473
    SCF energy          (wfn)                =  -76.059925854503135
    Reference energy    (file100)            =  -76.059925854502922
    CCSD energy         (file100)            =   -0.289356654996160
    Total CCSD energy   (file100)            =  -76.349282509499076

    Number of ijk index combinations:               35
    Memory available in words               :      2500000000
    Approx. words needed per explicit thread:        79610044
    Number of threads for explicit ijk threading:    1

    MKL num_threads set to 1 for explicit threading.

    (T) energy                                =   -0.008867989683501
      * CCSD(T) total energy                  =  -76.358150499182585


    Psi4 stopped on: Tuesday, 19 September 2023 09:42PM
    Psi4 wall time for execution: 0:25:07.77


    -----------------------------------------------------------------------
          Psi4: An Open-Source Ab Initio Electronic Structure Package
                               Psi4 1.7 release

                         Git: Rev {HEAD} 6ce35a5 


    D. G. A. Smith, L. A. Burns, A. C. Simmonett, R. M. Parrish,
    M. C. Schieber, R. Galvelis, P. Kraus, H. Kruse, R. Di Remigio,
    A. Alenaizan, A. M. James, S. Lehtola, J. P. Misiewicz, M. Scheurer,
    R. A. Shaw, J. B. Schriber, Y. Xie, Z. L. Glick, D. A. Sirianni,
    J. S. O'Brien, J. M. Waldrop, A. Kumar, E. G. Hohenstein,
    B. P. Pritchard, B. R. Brooks, H. F. Schaefer III, A. Yu. Sokolov,
    K. Patkowski, A. E. DePrince III, U. Bozkaya, R. A. King,
    F. A. Evangelista, J. M. Turney, T. D. Crawford, C. D. Sherrill,
    J. Chem. Phys. 152(18) 184108 (2020). https://doi.org/10.1063/5.0006002

                            Additional Code Authors
    E. T. Seidl, C. L. Janssen, E. F. Valeev, M. L. Leininger,
    J. F. Gonthier, R. M. Richard, H. R. McAlexander, M. Saitow, X. Wang,
    P. Verma, M. H. Lechner, A. Jiang, S. Behnle, A. G. Heide,
    M. F. Herbst, and D. L. Poole

             Previous Authors, Complete List of Code Contributors,
                       and Citations for Specific Modules
    https://github.com/psi4/psi4/blob/master/codemeta.json
    https://github.com/psi4/psi4/graphs/contributors
    http://psicode.org/psi4manual/master/introduction.html#citing-psifour

    -----------------------------------------------------------------------


    Psi4 started on: Sunday, 17 September 2023 12:48PM

    Process ID: 258105
    Host:       d-19-15-2
    PSIDATADIR: /home/gridsan/kfisher/.conda/envs/p4env/share/psi4
    Memory:     18.6 GiB
    Threads:    1
    
  ==> Input QCSchema <==

--------------------------------------------------------------------------
{'driver': 'energy',
 'extras': {'psiapi': True, 'wfn_qcvars_only': True},
 'id': None,
 'keywords': {'D_CONVERGENCE': 1e-10, 'E_CONVERGENCE': 1e-10, 'function_kwargs': {}},
 'model': {'basis': 'aug-cc-pvtz', 'method': 'ccsd(t)'},
 'molecule': {'atom_labels': ['', '', '', '', '', '', '', '', ''],
              'atomic_numbers': [1, 1, 8, 1, 1, 8, 1, 1, 8],
              'fix_com': True,
              'fix_orientation': True,
              'fix_symmetry': 'c1',
              'fragment_charges': [0.0, 0.0, 0.0],
              'fragment_multiplicities': [1, 1, 1],
              'fragments': [[0, 1, 2], [3, 4, 5], [6, 7, 8]],
              'geometry': [-1.2549376401889865, 0.6299892234170613, -1.8221466468277456, 0.01344037471113873,
                           2.6874314904820276, -0.31943308704843854, -0.030847700299361038, 0.8712250276543073,
                           -0.49871917134499827, -4.388251616239995, -0.9950845376226488, -3.490990206590787,
                           -2.765629604772715, -3.023031581376244, -5.108663705636899, -2.8300720813427542,
                           -1.3147610402933072, -4.405292788494148, 1.9006353632020063, -4.4440834990276015,
                           -5.380682128005745, 0.8141248929721224, -7.034766718859087, -5.967688283480025,
                           0.5911819966772719, -5.224075969749092, -6.3104047617092744],
              'mass_numbers': [1, 1, 16, 1, 1, 16, 1, 1, 16],
              'masses': [1.00782503223, 1.00782503223, 15.99491461957, 1.00782503223, 1.00782503223, 15.99491461957,
                         1.00782503223, 1.00782503223, 15.99491461957],
              'molecular_charge': 0.0,
              'molecular_multiplicity': 1,
              'name': 'H6O3',
              'provenance': {'creator': 'QCElemental',
                             'routine': 'qcelemental.molparse.from_string',
                             'version': 'v0.25.1'},
              'real': [False, False, False, True, True, True, False, False, False],
              'schema_name': 'qcschema_molecule',
              'schema_version': 2,
              'symbols': ['H', 'H', 'O', 'H', 'H', 'O', 'H', 'H', 'O'],
              'validated': True},
 'protocols': {'stdout': True},
 'provenance': {'creator': 'QCElemental', 'routine': 'qcelemental.models.results', 'version': 'v0.25.1'},
 'schema_name': 'qcschema_input',
 'schema_version': 1}
--------------------------------------------------------------------------

Scratch directory: /home/gridsan/kfisher/scratch/

*** tstart() called on d-19-15-2
*** at Tue Sep 19 21:42:45 2023

   => Loading Basis Set <=

    Name: AUG-CC-PVTZ
    Role: ORBITAL
    Keyword: BASIS
    atoms 1-2, 4-5, 7-8 entry H          line    40 file /home/gridsan/kfisher/.conda/envs/p4env/share/psi4/basis/aug-cc-pvtz.gbs 
    atoms 3, 6, 9       entry O          line   331 file /home/gridsan/kfisher/.conda/envs/p4env/share/psi4/basis/aug-cc-pvtz.gbs 


         ---------------------------------------------------------
                                   SCF
               by Justin Turney, Rob Parrish, Andy Simmonett
                          and Daniel G. A. Smith
                              RHF Reference
                        1 Threads,  19073 MiB Core
         ---------------------------------------------------------

  ==> Geometry <==

    Molecular point group: c1
    Full point group: C1

    Geometry (in Bohr), charge = 0, multiplicity = 1:

       Center              X                  Y                   Z               Mass       
    ------------   -----------------  -----------------  -----------------  -----------------
      Gh(H)          -1.254937640189     0.629989223417    -1.822146646828     1.007825032230
      Gh(H)           0.013440374711     2.687431490482    -0.319433087048     1.007825032230
      Gh(O)          -0.030847700299     0.871225027654    -0.498719171345    15.994914619570
         H           -4.388251616240    -0.995084537623    -3.490990206591     1.007825032230
         H           -2.765629604773    -3.023031581376    -5.108663705637     1.007825032230
         O           -2.830072081343    -1.314761040293    -4.405292788494    15.994914619570
      Gh(H)           1.900635363202    -4.444083499028    -5.380682128006     1.007825032230
      Gh(H)           0.814124892972    -7.034766718859    -5.967688283480     1.007825032230
      Gh(O)           0.591181996677    -5.224075969749    -6.310404761709    15.994914619570

  Running in c1 symmetry.

  Rotational constants: A =      0.26599  B =      0.03804  C =      0.03402 [cm^-1]
  Rotational constants: A =   7974.28822  B =   1140.41302  C =   1019.97555 [MHz]
  Nuclear repulsion =    9.015000800904366

  Charge       = 0
  Multiplicity = 1
  Electrons    = 10
  Nalpha       = 5
  Nbeta        = 5

  ==> Algorithm <==

  SCF Algorithm Type is PK.
  DIIS enabled.
  MOM disabled.
  Fractional occupation disabled.
  Guess Type is SAD.
  Energy threshold   = 1.00e-10
  Density threshold  = 1.00e-10
  Integral threshold = 1.00e-12

  ==> Primary Basis <==

  Basis Set: AUG-CC-PVTZ
    Blend: AUG-CC-PVTZ
    Number of shells: 96
    Number of basis functions: 276
    Number of Cartesian functions: 315
    Spherical Harmonics?: true
    Max angular momentum: 3

  ==> Integral Setup <==

  Using in-core PK algorithm.
   Calculation information:
      Number of atoms:                   9
      Number of AO shells:              96
      Number of primitives:            156
      Number of atomic orbitals:       315
      Number of basis functions:       276

      Integral cutoff                 1.00e-12
      Number of threads:                 1

  Performing in-core PK
  Using 1461265302 doubles for integral storage.
  We computed 9359766 shell quartets total.
  Whereas there are 10841496 unique shell quartets.

  ==> DiskJK: Disk-Based J/K Matrices <==

    J tasked:                  Yes
    K tasked:                  Yes
    wK tasked:                  No
    Memory [MiB]:            14305
    Schwarz Cutoff:          1E-12

    OpenMP threads:              1

  Minimum eigenvalue in the overlap matrix is 1.8856633185E-04.
  Reciprocal condition number of the overlap matrix is 1.8345003175E-05.
    Using symmetric orthogonalization.

  ==> Pre-Iterations <==

  SCF Guess: Superposition of Atomic Densities via on-the-fly atomic UHF (no occupation information).

   -------------------------
    Irrep   Nso     Nmo    
   -------------------------
     A        276     276 
   -------------------------
    Total     276     276
   -------------------------

  ==> Iterations <==

                        Total Energy        Delta E     RMS |[F,P]|

   @RHF iter SAD:   -75.45070664811279   -7.54507e+01   0.00000e+00 
   @RHF iter   1:   -75.97345675840108   -5.22750e-01   1.69332e-03 DIIS/ADIIS
   @RHF iter   2:   -76.02515989095791   -5.17031e-02   1.16596e-03 DIIS/ADIIS
   @RHF iter   3:   -76.05724050629669   -3.20806e-02   7.94271e-05 DIIS
   @RHF iter   4:   -76.05765930493776   -4.18799e-04   1.97558e-05 DIIS
   @RHF iter   5:   -76.05768758923558   -2.82843e-05   4.55729e-06 DIIS
   @RHF iter   6:   -76.05769002311949   -2.43388e-06   1.03738e-06 DIIS
   @RHF iter   7:   -76.05769016249853   -1.39379e-07   1.99533e-07 DIIS
   @RHF iter   8:   -76.05769016702070   -4.52216e-09   3.31726e-08 DIIS
   @RHF iter   9:   -76.05769016712208   -1.01380e-10   8.51520e-09 DIIS
   @RHF iter  10:   -76.05769016712742   -5.34328e-12   1.10072e-09 DIIS
   @RHF iter  11:   -76.05769016712782   -3.97904e-13   1.73763e-10 DIIS
   @RHF iter  12:   -76.05769016712755    2.70006e-13   3.49867e-11 DIIS
  Energy and wave function converged.


  ==> Post-Iterations <==

    Orbital Energies [Eh]
    ---------------------

    Doubly Occupied:                                                      

       1A    -20.566328     2A     -1.339483     3A     -0.722257  
       4A     -0.566526     5A     -0.506460  

    Virtual:                                                              

       6A      0.022608     7A      0.037602     8A      0.044494  
       9A      0.061947    10A      0.064758    11A      0.080859  
      12A      0.112582    13A      0.123486    14A      0.132937  
      15A      0.147371    16A      0.155740    17A      0.166194  
      18A      0.172954    19A      0.176233    20A      0.193797  
      21A      0.211016    22A      0.212802    23A      0.246885  
      24A      0.256220    25A      0.267412    26A      0.286776  
      27A      0.296161    28A      0.310530    29A      0.312503  
      30A      0.321989    31A      0.329294    32A      0.347224  
      33A      0.356831    34A      0.365103    35A      0.371744  
      36A      0.379070    37A      0.399900    38A      0.400361  
      39A      0.416683    40A      0.420381    41A      0.431813  
      42A      0.442409    43A      0.451558    44A      0.464733  
      45A      0.498423    46A      0.519222    47A      0.591337  
      48A      0.616692    49A      0.650546    50A      0.681388  
      51A      0.692170    52A      0.704373    53A      0.715595  
      54A      0.749897    55A      0.761525    56A      0.773765  
      57A      0.779796    58A      0.792421    59A      0.798420  
      60A      0.809213    61A      0.812569    62A      0.826364  
      63A      0.831600    64A      0.842856    65A      0.868012  
      66A      0.885562    67A      0.894247    68A      0.903235  
      69A      0.909448    70A      0.915358    71A      0.941485  
      72A      0.953535    73A      0.961471    74A      0.967066  
      75A      0.975315    76A      0.988381    77A      0.997293  
      78A      1.008171    79A      1.020460    80A      1.023389  
      81A      1.050756    82A      1.065354    83A      1.077995  
      84A      1.084598    85A      1.104949    86A      1.118142  
      87A      1.134528    88A      1.142357    89A      1.154928  
      90A      1.178352    91A      1.193171    92A      1.198390  
      93A      1.233731    94A      1.260889    95A      1.267194  
      96A      1.283219    97A      1.329824    98A      1.345242  
      99A      1.360088   100A      1.391498   101A      1.408112  
     102A      1.424632   103A      1.490076   104A      1.513602  
     105A      1.546754   106A      1.562994   107A      1.569004  
     108A      1.595186   109A      1.614414   110A      1.682845  
     111A      1.724990   112A      1.736018   113A      1.748572  
     114A      1.770386   115A      1.809621   116A      1.819959  
     117A      1.830809   118A      1.840444   119A      1.858224  
     120A      1.870370   121A      1.907979   122A      1.918442  
     123A      1.991938   124A      2.002010   125A      2.072825  
     126A      2.094630   127A      2.233254   128A      2.260073  
     129A      2.364361   130A      2.375963   131A      2.424041  
     132A      2.443262   133A      2.473666   134A      2.487232  
     135A      2.511394   136A      2.519471   137A      2.532933  
     138A      2.542792   139A      2.567115   140A      2.581804  
     141A      2.598165   142A      2.608429   143A      2.622510  
     144A      2.646865   145A      2.655008   146A      2.671494  
     147A      2.734895   148A      2.761576   149A      2.789481  
     150A      2.801959   151A      2.839879   152A      2.873805  
     153A      2.903972   154A      2.948366   155A      2.973455  
     156A      3.010184   157A      3.073903   158A      3.107022  
     159A      3.176656   160A      3.197136   161A      3.213217  
     162A      3.233325   163A      3.291914   164A      3.324531  
     165A      3.342298   166A      3.380158   167A      3.488053  
     168A      3.516789   169A      3.550575   170A      3.598324  
     171A      3.711681   172A      3.780985   173A      3.870583  
     174A      3.976178   175A      4.130326   176A      4.244383  
     177A      4.305437   178A      4.357155   179A      4.397134  
     180A      4.425863   181A      4.449543   182A      4.459393  
     183A      4.477984   184A      4.504178   185A      4.536031  
     186A      4.549130   187A      4.572526   188A      4.590775  
     189A      4.653366   190A      4.664212   191A      4.667256  
     192A      4.699459   193A      4.735162   194A      4.754451  
     195A      4.806446   196A      4.859589   197A      4.907933  
     198A      4.924791   199A      4.943524   200A      4.965024  
     201A      5.004757   202A      5.045089   203A      5.069890  
     204A      5.163653   205A      5.250793   206A      5.286112  
     207A      5.359838   208A      5.388794   209A      5.411514  
     210A      5.509551   211A      5.539279   212A      5.605871  
     213A      5.638430   214A      5.656957   215A      5.710054  
     216A      5.732288   217A      5.844170   218A      5.870942  
     219A      5.972543   220A      6.148352   221A      6.197942  
     222A      6.268788   223A      6.402758   224A      6.475151  
     225A      6.616862   226A      6.648833   227A      6.701602  
     228A      6.871431   229A      6.924000   230A      7.068270  
     231A      7.098495   232A      7.225256   233A      7.336746  
     234A      7.368361   235A      7.382284   236A      7.452318  
     237A      7.509799   238A      7.707894   239A      7.748872  
     240A      7.785980   241A      7.827745   242A      7.870156  
     243A      7.956080   244A      8.010034   245A      8.078744  
     246A      8.092171   247A      8.165091   248A      8.219702  
     249A      8.319140   250A      8.336588   251A      8.730856  
     252A      8.745646   253A      8.823824   254A      8.899471  
     255A      9.020471   256A      9.677442   257A      9.742271  
     258A      9.879318   259A      9.953763   260A     10.014554  
     261A     10.102603   262A     10.218333   263A     10.347202  
     264A     11.185879   265A     11.290007   266A     11.772889  
     267A     11.818160   268A     12.182465   269A     12.211089  
     270A     13.493205   271A     13.636676   272A     13.832736  
     273A     13.976583   274A     16.017617   275A     64.806487  
     276A     65.902563  

    Final Occupation by Irrep:
              A 
    DOCC [     5 ]
    NA   [     5 ]
    NB   [     5 ]

  @RHF Final Energy:   -76.05769016712755

   => Energetics <=

    Nuclear Repulsion Energy =              9.0150008009043656
    One-Electron Energy =                -122.7432708799615853
    Two-Electron Energy =                  37.6705799119296714
    Total Energy =                        -76.0576901671275607

Computation Completed


Properties will be evaluated at   0.000000,   0.000000,   0.000000 [a0]

Properties computed using the SCF density matrix


 Multipole Moments:

 ------------------------------------------------------------------------------------
     Multipole            Electronic (a.u.)      Nuclear  (a.u.)        Total (a.u.)
 ------------------------------------------------------------------------------------

 L = 1.  Multiply by 2.5417464519 to convert [e a0] to [Debye]
 Dipole X            :         29.2611914          -29.7944579           -0.5332664
 Dipole Y            :         14.0416130          -14.5362044           -0.4945915
 Dipole Z            :         43.9175572          -43.8419962            0.0755609
 Magnitude           :                                                    0.7312341

 ------------------------------------------------------------------------------------

*** tstop() called on d-19-15-2 at Tue Sep 19 21:44:09 2023
Module time:
	user time   =      76.07 seconds =       1.27 minutes
	system time =       2.93 seconds =       0.05 minutes
	total time  =         84 seconds =       1.40 minutes
Total time:
	user time   =  120997.11 seconds =    2016.62 minutes
	system time =   62041.26 seconds =    1034.02 minutes
	total time  =     204945 seconds =    3415.75 minutes
 MINTS: Wrapper to libmints.
   by Justin Turney

   Calculation information:
      Number of threads:                 1
      Number of atoms:                   9
      Number of AO shells:              96
      Number of SO shells:              96
      Number of primitives:            156
      Number of atomic orbitals:       315
      Number of basis functions:       276

      Number of irreps:                  1
      Integral cutoff                 1.00e-12
      Number of functions per irrep: [ 276 ]

 OEINTS: Overlap, kinetic, potential, dipole, and quadrupole integrals
         stored in file 35.

      Computing two-electron integrals...done
      Computed 581721423 non-zero two-electron integrals.
        Stored in file 33.


*** tstart() called on d-19-15-2
*** at Tue Sep 19 21:45:10 2023


	Wfn Parameters:
	--------------------
	Wavefunction         = CCSD_T
	Number of irreps     = 1
	Number of MOs        = 276
	Number of active MOs = 276
	AO-Basis             = NONE
	Semicanonical        = false
	Reference            = RHF
	Print Level          = 1

	IRREP	# MOs	# FZDC	# DOCC	# SOCC	# VIRT	# FZVR
	-----	-----	------	------	------	------	------
	 A	   276	    0	    5	    0	    271	    0
	Transforming integrals...
	IWL integrals will be deleted.
	(OO|OO)...
	Presorting SO-basis two-electron integrals.
	Sorting File: SO Ints (nn|nn) nbuckets = 1
	Constructing frozen core operators
	Starting first half-transformation.
	Sorting half-transformed integrals.
	First half integral transformation complete.
	Starting second half-transformation.
	Two-electron integral transformation complete.
	(OO|OV)...
	Starting second half-transformation.
	Two-electron integral transformation complete.
	(OO|VV)...
	Starting second half-transformation.
	Two-electron integral transformation complete.
	(OV|OO)...
	Starting first half-transformation.
	Sorting half-transformed integrals.
	First half integral transformation complete.
	Starting second half-transformation.
	Two-electron integral transformation complete.
	(OV|OV)...
	Starting second half-transformation.
	Two-electron integral transformation complete.
	(OV|VV)...
	Starting second half-transformation.
	Two-electron integral transformation complete.
	(VV|OO)...
	Starting first half-transformation.
	Sorting half-transformed integrals.
	First half integral transformation complete.
	Starting second half-transformation.
	Two-electron integral transformation complete.
	(VV|OV)...
	Starting second half-transformation.
	Two-electron integral transformation complete.
	(VV|VV)...
	Starting second half-transformation.
	Two-electron integral transformation complete.
	Frozen core energy     =      0.00000000000000

	Size of irrep 0 of <ab|cd> integrals:   5393.580 (MW) /  43148.644 (MB)
	Total:                                  5393.580 (MW) /  43148.644 (MB)

	Size of irrep 0 of <ia|bc> integrals:     99.513 (MW) /    796.100 (MB)
	Total:                                    99.513 (MW) /    796.100 (MB)

	Size of irrep 0 of tijab amplitudes:       1.836 (MW) /     14.688 (MB)
	Total:                                     1.836 (MW) /     14.688 (MB)

	Nuclear Rep. energy          =      9.01500080090437
	SCF energy                   =    -76.05769016712755
	One-electron energy          =   -122.74327088781185
	Two-electron energy          =     37.67057991977989
	Reference energy             =    -76.05769016712760

*** tstop() called on d-19-15-2 at Tue Sep 19 22:03:31 2023
Module time:
	user time   =     534.93 seconds =       8.92 minutes
	system time =     358.08 seconds =       5.97 minutes
	total time  =       1101 seconds =      18.35 minutes
Total time:
	user time   =  121575.54 seconds =    2026.26 minutes
	system time =   62413.80 seconds =    1040.23 minutes
	total time  =     206107 seconds =    3435.12 minutes
            **************************
            *                        *
            *        CCENERGY        *
            *                        *
            **************************

    Nuclear Rep. energy (wfn)     =    9.015000800904366
    SCF energy          (wfn)     =  -76.057690167127546
    Reference energy    (file100) =  -76.057690167127603

    Input parameters:
    -----------------
    Wave function   =     CCSD_T
    Reference wfn   =     RHF
    Brueckner       =     No
    Memory (Mbytes) =     20000.0
    Maxiter         =     50
    R_Convergence   =     1.0e-07
    E_Convergence   =     1.0e-10
    Restart         =     Yes
    DIIS            =     Yes
    AO Basis        =     NONE
    ABCD            =     NEW
    Cache Level     =     2
    Cache Type      =     LOW
    Print Level     =     1
    Num. of threads =     1
    # Amps to Print =     10
    Print MP2 Amps? =     No
    Analyze T2 Amps =     No
    Print Pair Ener =     No
    Local CC        =     No
    SCS-MP2         =     False
    SCSN-MP2        =     False
    SCS-CCSD        =     False

MP2 correlation energy -0.2851857717228373
                Solving CC Amplitude Equations
                ------------------------------
  Iter             Energy              RMS        T1Diag      D1Diag    New D1Diag    D2Diag
  ----     ---------------------    ---------   ----------  ----------  ----------   --------
     0        -0.285185771722837    0.000e+00    0.000000    0.000000    0.000000    0.118797
     1        -0.283266340967576    3.603e-02    0.007704    0.017268    0.017268    0.121032
     2        -0.288377702168952    1.279e-02    0.007525    0.016977    0.016977    0.125582
     3        -0.289761907201337    5.016e-03    0.008730    0.020216    0.020216    0.127768
     4        -0.289630890046339    1.102e-03    0.008889    0.020677    0.020677    0.127959
     5        -0.289640233928242    4.194e-04    0.008976    0.020973    0.020973    0.128015
     6        -0.289648591958555    1.137e-04    0.008999    0.021060    0.021060    0.128014
     7        -0.289646884253643    4.105e-05    0.009005    0.021083    0.021083    0.128006
     8        -0.289646168072980    1.286e-05    0.009006    0.021089    0.021089    0.128004
     9        -0.289646329673652    4.970e-06    0.009007    0.021091    0.021091    0.128004
    10        -0.289646103734462    1.955e-06    0.009007    0.021091    0.021091    0.128004
    11        -0.289646103774665    6.862e-07    0.009007    0.021091    0.021091    0.128004
    12        -0.289646093923416    3.009e-07    0.009007    0.021091    0.021091    0.128004
    13        -0.289646089497676    9.866e-08    0.009007    0.021091    0.021091    0.128004
    14        -0.289646089459087    3.259e-08    0.009007    0.021091    0.021091    0.128004
    15        -0.289646089568094    1.171e-08    0.009007    0.021091    0.021091    0.128004

    Iterations converged.


    Largest TIA Amplitudes:
              4  13        -0.0078420212
              4  35         0.0062449978
              4   6         0.0055784615
              4   5         0.0055338806
              4  11        -0.0051714193
              3  29         0.0049853611
              4  15        -0.0048624680
              3  15        -0.0047387320
              2 120        -0.0046491576
              4  12         0.0045899429

    Largest TIjAb Amplitudes:
      2   2  38  38        -0.0089934000
      2   2  42  42        -0.0079479359
      3   3  42  42        -0.0076141780
      2   2  40  40        -0.0072097896
      0   0 268 268        -0.0066596422
      4   4  41  41        -0.0060385445
      3   3  40  40        -0.0059552245
      3   3 126 126        -0.0057511828
      4   4 123 123        -0.0056027352
      3   3  29  29        -0.0055803566

    SCF energy       (wfn)                    =  -76.057690167127546
    Reference energy (file100)                =  -76.057690167127603

    Opposite-spin MP2 correlation energy      =   -0.216568062831375
    Same-spin MP2 correlation energy          =   -0.068617708891462
    Singles MP2 correlation energy            =   -0.000000000000000
    MP2 correlation energy                    =   -0.285185771722837
      * MP2 total energy                      =  -76.342875938850440

    Opposite-spin CCSD correlation energy     =   -0.228580301204816
    Same-spin CCSD correlation energy         =   -0.061065788363278
    Singles CCSD correlation energy           =    0.000000000000000
    CCSD correlation energy                   =   -0.289646089568094
      * CCSD total energy                     =  -76.347336256695698

            **************************
            *                        *
            *        CCTRIPLES       *
            *                        *
            **************************


    Wave function   =    CCSD_T
    Reference wfn   =      RHF

    Nuclear Rep. energy (wfn)                =    9.015000800904366
    SCF energy          (wfn)                =  -76.057690167127546
    Reference energy    (file100)            =  -76.057690167127603
    CCSD energy         (file100)            =   -0.289646089568094
    Total CCSD energy   (file100)            =  -76.347336256695698

    Number of ijk index combinations:               35
    Memory available in words               :      2500000000
    Approx. words needed per explicit thread:        79610044
    Number of threads for explicit ijk threading:    1

    MKL num_threads set to 1 for explicit threading.

    (T) energy                                =   -0.008942447794201
      * CCSD(T) total energy                  =  -76.356278704489895


    Psi4 stopped on: Tuesday, 19 September 2023 10:17PM
    Psi4 wall time for execution: 0:34:44.73


    -----------------------------------------------------------------------
          Psi4: An Open-Source Ab Initio Electronic Structure Package
                               Psi4 1.7 release

                         Git: Rev {HEAD} 6ce35a5 


    D. G. A. Smith, L. A. Burns, A. C. Simmonett, R. M. Parrish,
    M. C. Schieber, R. Galvelis, P. Kraus, H. Kruse, R. Di Remigio,
    A. Alenaizan, A. M. James, S. Lehtola, J. P. Misiewicz, M. Scheurer,
    R. A. Shaw, J. B. Schriber, Y. Xie, Z. L. Glick, D. A. Sirianni,
    J. S. O'Brien, J. M. Waldrop, A. Kumar, E. G. Hohenstein,
    B. P. Pritchard, B. R. Brooks, H. F. Schaefer III, A. Yu. Sokolov,
    K. Patkowski, A. E. DePrince III, U. Bozkaya, R. A. King,
    F. A. Evangelista, J. M. Turney, T. D. Crawford, C. D. Sherrill,
    J. Chem. Phys. 152(18) 184108 (2020). https://doi.org/10.1063/5.0006002

                            Additional Code Authors
    E. T. Seidl, C. L. Janssen, E. F. Valeev, M. L. Leininger,
    J. F. Gonthier, R. M. Richard, H. R. McAlexander, M. Saitow, X. Wang,
    P. Verma, M. H. Lechner, A. Jiang, S. Behnle, A. G. Heide,
    M. F. Herbst, and D. L. Poole

             Previous Authors, Complete List of Code Contributors,
                       and Citations for Specific Modules
    https://github.com/psi4/psi4/blob/master/codemeta.json
    https://github.com/psi4/psi4/graphs/contributors
    http://psicode.org/psi4manual/master/introduction.html#citing-psifour

    -----------------------------------------------------------------------


    Psi4 started on: Sunday, 17 September 2023 12:48PM

    Process ID: 258105
    Host:       d-19-15-2
    PSIDATADIR: /home/gridsan/kfisher/.conda/envs/p4env/share/psi4
    Memory:     18.6 GiB
    Threads:    1
    
  ==> Input QCSchema <==

--------------------------------------------------------------------------
{'driver': 'energy',
 'extras': {'psiapi': True, 'wfn_qcvars_only': True},
 'id': None,
 'keywords': {'D_CONVERGENCE': 1e-10, 'E_CONVERGENCE': 1e-10, 'function_kwargs': {}},
 'model': {'basis': 'aug-cc-pvtz', 'method': 'ccsd(t)'},
 'molecule': {'atom_labels': ['', '', '', '', '', '', '', '', ''],
              'atomic_numbers': [1, 1, 8, 1, 1, 8, 1, 1, 8],
              'fix_com': True,
              'fix_orientation': True,
              'fix_symmetry': 'c1',
              'fragment_charges': [0.0, 0.0, 0.0],
              'fragment_multiplicities': [1, 1, 1],
              'fragments': [[0, 1, 2], [3, 4, 5], [6, 7, 8]],
              'geometry': [-1.2549376401889865, 0.6299892234170613, -1.8221466468277456, 0.01344037471113873,
                           2.6874314904820276, -0.31943308704843854, -0.030847700299361038, 0.8712250276543073,
                           -0.49871917134499827, -4.388251616239995, -0.9950845376226488, -3.490990206590787,
                           -2.765629604772715, -3.023031581376244, -5.108663705636899, -2.8300720813427542,
                           -1.3147610402933072, -4.405292788494148, 1.9006353632020063, -4.4440834990276015,
                           -5.380682128005745, 0.8141248929721224, -7.034766718859087, -5.967688283480025,
                           0.5911819966772719, -5.224075969749092, -6.3104047617092744],
              'mass_numbers': [1, 1, 16, 1, 1, 16, 1, 1, 16],
              'masses': [1.00782503223, 1.00782503223, 15.99491461957, 1.00782503223, 1.00782503223, 15.99491461957,
                         1.00782503223, 1.00782503223, 15.99491461957],
              'molecular_charge': 0.0,
              'molecular_multiplicity': 1,
              'name': 'H6O3',
              'provenance': {'creator': 'QCElemental',
                             'routine': 'qcelemental.molparse.from_string',
                             'version': 'v0.25.1'},
              'real': [False, False, False, True, True, True, True, True, True],
              'schema_name': 'qcschema_molecule',
              'schema_version': 2,
              'symbols': ['H', 'H', 'O', 'H', 'H', 'O', 'H', 'H', 'O'],
              'validated': True},
 'protocols': {'stdout': True},
 'provenance': {'creator': 'QCElemental', 'routine': 'qcelemental.models.results', 'version': 'v0.25.1'},
 'schema_name': 'qcschema_input',
 'schema_version': 1}
--------------------------------------------------------------------------

Scratch directory: /home/gridsan/kfisher/scratch/

*** tstart() called on d-19-15-2
*** at Tue Sep 19 22:17:30 2023

   => Loading Basis Set <=

    Name: AUG-CC-PVTZ
    Role: ORBITAL
    Keyword: BASIS
    atoms 1-2, 4-5, 7-8 entry H          line    40 file /home/gridsan/kfisher/.conda/envs/p4env/share/psi4/basis/aug-cc-pvtz.gbs 
    atoms 3, 6, 9       entry O          line   331 file /home/gridsan/kfisher/.conda/envs/p4env/share/psi4/basis/aug-cc-pvtz.gbs 


         ---------------------------------------------------------
                                   SCF
               by Justin Turney, Rob Parrish, Andy Simmonett
                          and Daniel G. A. Smith
                              RHF Reference
                        1 Threads,  19073 MiB Core
         ---------------------------------------------------------

  ==> Geometry <==

    Molecular point group: c1
    Full point group: C1

    Geometry (in Bohr), charge = 0, multiplicity = 1:

       Center              X                  Y                   Z               Mass       
    ------------   -----------------  -----------------  -----------------  -----------------
      Gh(H)          -1.254937640189     0.629989223417    -1.822146646828     1.007825032230
      Gh(H)           0.013440374711     2.687431490482    -0.319433087048     1.007825032230
      Gh(O)          -0.030847700299     0.871225027654    -0.498719171345    15.994914619570
         H           -4.388251616240    -0.995084537623    -3.490990206591     1.007825032230
         H           -2.765629604773    -3.023031581376    -5.108663705637     1.007825032230
         O           -2.830072081343    -1.314761040293    -4.405292788494    15.994914619570
         H            1.900635363202    -4.444083499028    -5.380682128006     1.007825032230
         H            0.814124892972    -7.034766718859    -5.967688283480     1.007825032230
         O            0.591181996677    -5.224075969749    -6.310404761709    15.994914619570

  Running in c1 symmetry.

  Rotational constants: A =      0.26599  B =      0.03804  C =      0.03402 [cm^-1]
  Rotational constants: A =   7974.28822  B =   1140.41302  C =   1019.97555 [MHz]
  Nuclear repulsion =   35.936485724858827

  Charge       = 0
  Multiplicity = 1
  Electrons    = 20
  Nalpha       = 10
  Nbeta        = 10

  ==> Algorithm <==

  SCF Algorithm Type is PK.
  DIIS enabled.
  MOM disabled.
  Fractional occupation disabled.
  Guess Type is SAD.
  Energy threshold   = 1.00e-10
  Density threshold  = 1.00e-10
  Integral threshold = 1.00e-12

  ==> Primary Basis <==

  Basis Set: AUG-CC-PVTZ
    Blend: AUG-CC-PVTZ
    Number of shells: 96
    Number of basis functions: 276
    Number of Cartesian functions: 315
    Spherical Harmonics?: true
    Max angular momentum: 3

  ==> Integral Setup <==

  Using in-core PK algorithm.
   Calculation information:
      Number of atoms:                   9
      Number of AO shells:              96
      Number of primitives:            156
      Number of atomic orbitals:       315
      Number of basis functions:       276

      Integral cutoff                 1.00e-12
      Number of threads:                 1

  Performing in-core PK
  Using 1461265302 doubles for integral storage.
  We computed 9359766 shell quartets total.
  Whereas there are 10841496 unique shell quartets.

  ==> DiskJK: Disk-Based J/K Matrices <==

    J tasked:                  Yes
    K tasked:                  Yes
    wK tasked:                  No
    Memory [MiB]:            14305
    Schwarz Cutoff:          1E-12

    OpenMP threads:              1

  Minimum eigenvalue in the overlap matrix is 1.8856633185E-04.
  Reciprocal condition number of the overlap matrix is 1.8345003175E-05.
    Using symmetric orthogonalization.

  ==> Pre-Iterations <==

  SCF Guess: Superposition of Atomic Densities via on-the-fly atomic UHF (no occupation information).

   -------------------------
    Irrep   Nso     Nmo    
   -------------------------
     A        276     276 
   -------------------------
    Total     276     276
   -------------------------

  ==> Iterations <==

                        Total Energy        Delta E     RMS |[F,P]|

   @RHF iter SAD:  -150.97274834313680   -1.50973e+02   0.00000e+00 
   @RHF iter   1:  -151.95846131163262   -9.85713e-01   2.35223e-03 DIIS/ADIIS
   @RHF iter   2:  -152.06040006427409   -1.01939e-01   1.59329e-03 DIIS/ADIIS
   @RHF iter   3:  -152.12015306100241   -5.97530e-02   1.12992e-04 DIIS/ADIIS
   @RHF iter   4:  -152.12098432890102   -8.31268e-04   2.69901e-05 DIIS
   @RHF iter   5:  -152.12103482973643   -5.05008e-05   7.63744e-06 DIIS
   @RHF iter   6:  -152.12103957725489   -4.74752e-06   3.49016e-06 DIIS
   @RHF iter   7:  -152.12104015718529   -5.79930e-07   8.38057e-07 DIIS
   @RHF iter   8:  -152.12104022843036   -7.12451e-08   1.43248e-07 DIIS
   @RHF iter   9:  -152.12104023051808   -2.08772e-09   2.66378e-08 DIIS
   @RHF iter  10:  -152.12104023058106   -6.29825e-11   7.86741e-09 DIIS
   @RHF iter  11:  -152.12104023058620   -5.14433e-12   1.71483e-09 DIIS
   @RHF iter  12:  -152.12104023058714   -9.37916e-13   3.06565e-10 DIIS
   @RHF iter  13:  -152.12104023058612    1.02318e-12   1.23182e-10 DIIS
   @RHF iter  14:  -152.12104023058657   -4.54747e-13   2.48347e-11 DIIS
  Energy and wave function converged.


  ==> Post-Iterations <==

    Orbital Energies [Eh]
    ---------------------

    Doubly Occupied:                                                      

       1A    -20.577591     2A    -20.545192     3A     -1.361749  
       4A     -1.319440     5A     -0.723897     6A     -0.703850  
       7A     -0.595615     8A     -0.548040     9A     -0.521266  
      10A     -0.486092  

    Virtual:                                                              

      11A      0.024396    12A      0.037486    13A      0.045046  
      14A      0.059801    15A      0.070680    16A      0.081959  
      17A      0.121341    18A      0.136308    19A      0.146807  
      20A      0.149903    21A      0.162252    22A      0.175818  
      23A      0.178390    24A      0.182754    25A      0.206253  
      26A      0.218027    27A      0.219071    28A      0.231775  
      29A      0.254743    30A      0.261939    31A      0.281037  
      32A      0.288671    33A      0.310534    34A      0.312997  
      35A      0.321782    36A      0.339623    37A      0.348367  
      38A      0.375558    39A      0.376709    40A      0.380108  
      41A      0.395565    42A      0.409133    43A      0.427128  
      44A      0.433441    45A      0.437588    46A      0.442275  
      47A      0.457081    48A      0.469195    49A      0.490493  
      50A      0.507946    51A      0.530194    52A      0.573938  
      53A      0.614238    54A      0.644591    55A      0.657122  
      56A      0.680035    57A      0.690073    58A      0.709114  
      59A      0.716264    60A      0.751285    61A      0.768866  
      62A      0.771808    63A      0.787853    64A      0.800376  
      65A      0.806479    66A      0.816180    67A      0.829038  
      68A      0.832057    69A      0.861251    70A      0.875811  
      71A      0.888778    72A      0.902695    73A      0.915935  
      74A      0.919782    75A      0.932040    76A      0.938996  
      77A      0.955679    78A      0.959335    79A      0.973421  
      80A      0.985439    81A      1.011483    82A      1.015215  
      83A      1.026649    84A      1.032644    85A      1.039492  
      86A      1.049362    87A      1.074943    88A      1.078219  
      89A      1.083791    90A      1.102324    91A      1.111080  
      92A      1.118900    93A      1.134245    94A      1.153403  
      95A      1.180971    96A      1.188089    97A      1.200477  
      98A      1.236899    99A      1.248868   100A      1.258764  
     101A      1.283425   102A      1.301261   103A      1.344244  
     104A      1.354558   105A      1.396236   106A      1.420001  
     107A      1.441128   108A      1.457872   109A      1.514259  
     110A      1.543428   111A      1.567212   112A      1.579840  
     113A      1.597504   114A      1.622513   115A      1.682231  
     116A      1.693966   117A      1.734215   118A      1.752430  
     119A      1.761213   120A      1.786042   121A      1.818206  
     122A      1.844587   123A      1.852440   124A      1.871986  
     125A      1.879172   126A      1.916813   127A      2.002328  
     128A      2.018497   129A      2.024412   130A      2.103218  
     131A      2.156014   132A      2.238285   133A      2.269440  
     134A      2.317239   135A      2.371043   136A      2.381021  
     137A      2.407106   138A      2.440891   139A      2.465695  
     140A      2.477085   141A      2.489999   142A      2.494695  
     143A      2.510999   144A      2.545568   145A      2.560744  
     146A      2.585891   147A      2.592251   148A      2.603720  
     149A      2.609870   150A      2.616194   151A      2.653047  
     152A      2.671508   153A      2.695738   154A      2.751537  
     155A      2.771400   156A      2.775597   157A      2.802555  
     158A      2.842535   159A      2.860976   160A      2.862289  
     161A      2.907067   162A      2.955860   163A      2.991005  
     164A      3.040835   165A      3.088198   166A      3.120933  
     167A      3.204394   168A      3.231534   169A      3.383042  
     170A      3.489861   171A      3.537897   172A      3.598466  
     173A      3.719494   174A      3.776773   175A      3.782664  
     176A      3.879465   177A      3.972854   178A      4.046588  
     179A      4.138942   180A      4.188285   181A      4.239591  
     182A      4.257920   183A      4.275237   184A      4.316292  
     185A      4.385409   186A      4.412445   187A      4.440477  
     188A      4.449596   189A      4.474405   190A      4.482676  
     191A      4.500256   192A      4.513566   193A      4.551648  
     194A      4.560148   195A      4.583152   196A      4.594575  
     197A      4.654506   198A      4.682202   199A      4.722879  
     200A      4.733816   201A      4.771498   202A      4.818359  
     203A      4.865443   204A      4.907195   205A      4.945139  
     206A      4.966392   207A      4.983749   208A      5.073583  
     209A      5.153344   210A      5.160918   211A      5.188898  
     212A      5.260065   213A      5.300734   214A      5.347283  
     215A      5.383101   216A      5.394760   217A      5.431355  
     218A      5.520959   219A      5.579101   220A      5.640278  
     221A      5.666956   222A      5.734527   223A      5.755419  
     224A      5.861521   225A      5.976879   226A      6.159845  
     227A      6.244005   228A      6.276645   229A      6.478666  
     230A      6.547896   231A      6.655599   232A      6.712426  
     233A      6.772217   234A      6.881970   235A      6.911979  
     236A      6.952586   237A      7.101729   238A      7.154083  
     239A      7.241551   240A      7.290694   241A      7.320024  
     242A      7.343146   243A      7.351006   244A      7.379245  
     245A      7.384549   246A      7.400669   247A      7.426923  
     248A      7.472122   249A      7.538564   250A      7.589726  
     251A      7.750612   252A      7.806856   253A      7.864124  
     254A      7.874470   255A      7.944603   256A      7.996526  
     257A      8.057332   258A      8.086442   259A      8.222242  
     260A      8.337765   261A      8.767253   262A      8.833948  
     263A      8.902122   264A      9.023740   265A      9.678362  
     266A      9.880255   267A     10.103723   268A     10.348377  
     269A     11.291551   270A     11.781406   271A     12.212513  
     272A     13.637720   273A     13.977116   274A     15.810143  
     275A     16.089781   276A     65.903728  

    Final Occupation by Irrep:
              A 
    DOCC [    10 ]
    NA   [    10 ]
    NB   [    10 ]

  @RHF Final Energy:  -152.12104023058657

   => Energetics <=

    Nuclear Repulsion Energy =             35.9364857248588265
    One-Electron Energy =                -281.3495883540525710
    Two-Electron Energy =                  93.2920623986071860
    Total Energy =                       -152.1210402305865728

Computation Completed


Properties will be evaluated at   0.000000,   0.000000,   0.000000 [a0]

Properties computed using the SCF density matrix


 Multipole Moments:

 ------------------------------------------------------------------------------------
     Multipole            Electronic (a.u.)      Nuclear  (a.u.)        Total (a.u.)
 ------------------------------------------------------------------------------------

 L = 1.  Multiply by 2.5417464519 to convert [e a0] to [Debye]
 Dipole X            :         22.4439530          -22.3502416            0.0937113
 Dipole Y            :         66.8940486          -67.8076624           -0.9136138
 Dipole Z            :        106.1554239         -105.6736047            0.4818191
 Magnitude           :                                                    1.0371218

 ------------------------------------------------------------------------------------

*** tstop() called on d-19-15-2 at Tue Sep 19 22:19:03 2023
Module time:
	user time   =      83.95 seconds =       1.40 minutes
	system time =       5.16 seconds =       0.09 minutes
	total time  =         93 seconds =       1.55 minutes
Total time:
	user time   =  121937.45 seconds =    2032.29 minutes
	system time =   62766.89 seconds =    1046.11 minutes
	total time  =     207039 seconds =    3450.65 minutes
 MINTS: Wrapper to libmints.
   by Justin Turney

   Calculation information:
      Number of threads:                 1
      Number of atoms:                   9
      Number of AO shells:              96
      Number of SO shells:              96
      Number of primitives:            156
      Number of atomic orbitals:       315
      Number of basis functions:       276

      Number of irreps:                  1
      Integral cutoff                 1.00e-12
      Number of functions per irrep: [ 276 ]

 OEINTS: Overlap, kinetic, potential, dipole, and quadrupole integrals
         stored in file 35.

      Computing two-electron integrals...done
      Computed 581721423 non-zero two-electron integrals.
        Stored in file 33.


*** tstart() called on d-19-15-2
*** at Tue Sep 19 22:20:05 2023


	Wfn Parameters:
	--------------------
	Wavefunction         = CCSD_T
	Number of irreps     = 1
	Number of MOs        = 276
	Number of active MOs = 276
	AO-Basis             = NONE
	Semicanonical        = false
	Reference            = RHF
	Print Level          = 1

	IRREP	# MOs	# FZDC	# DOCC	# SOCC	# VIRT	# FZVR
	-----	-----	------	------	------	------	------
	 A	   276	    0	    10	    0	    266	    0
	Transforming integrals...
	IWL integrals will be deleted.
	(OO|OO)...
	Presorting SO-basis two-electron integrals.
	Sorting File: SO Ints (nn|nn) nbuckets = 1
	Constructing frozen core operators
	Starting first half-transformation.
	Sorting half-transformed integrals.
	First half integral transformation complete.
	Starting second half-transformation.
	Two-electron integral transformation complete.
	(OO|OV)...
	Starting second half-transformation.
	Two-electron integral transformation complete.
	(OO|VV)...
	Starting second half-transformation.
	Two-electron integral transformation complete.
	(OV|OO)...
	Starting first half-transformation.
	Sorting half-transformed integrals.
	First half integral transformation complete.
	Starting second half-transformation.
	Two-electron integral transformation complete.
	(OV|OV)...
	Starting second half-transformation.
	Two-electron integral transformation complete.
	(OV|VV)...
	Starting second half-transformation.
	Two-electron integral transformation complete.
	(VV|OO)...
	Starting first half-transformation.
	Sorting half-transformed integrals.
	First half integral transformation complete.
	Starting second half-transformation.
	Two-electron integral transformation complete.
	(VV|OV)...
	Starting second half-transformation.
	Two-electron integral transformation complete.
	(VV|VV)...
	Starting second half-transformation.
	Two-electron integral transformation complete.
	Frozen core energy     =      0.00000000000000

	Size of irrep 0 of <ab|cd> integrals:   5006.412 (MW) /  40051.292 (MB)
	Total:                                  5006.412 (MW) /  40051.292 (MB)

	Size of irrep 0 of <ia|bc> integrals:    188.211 (MW) /   1505.688 (MB)
	Total:                                   188.211 (MW) /   1505.688 (MB)

	Size of irrep 0 of tijab amplitudes:       7.076 (MW) /     56.605 (MB)
	Total:                                     7.076 (MW) /     56.605 (MB)

	Nuclear Rep. energy          =     35.93648572485883
	SCF energy                   =   -152.12104023058657
	One-electron energy          =   -281.34958834516419
	Two-electron energy          =     93.29206238971885
	Reference energy             =   -152.12104023058652

*** tstop() called on d-19-15-2 at Tue Sep 19 22:36:09 2023
Module time:
	user time   =     516.49 seconds =       8.61 minutes
	system time =     338.11 seconds =       5.64 minutes
	total time  =        964 seconds =      16.07 minutes
Total time:
	user time   =  122497.64 seconds =    2041.63 minutes
	system time =   63119.31 seconds =    1051.99 minutes
	total time  =     208065 seconds =    3467.75 minutes
            **************************
            *                        *
            *        CCENERGY        *
            *                        *
            **************************

    Nuclear Rep. energy (wfn)     =   35.936485724858827
    SCF energy          (wfn)     = -152.121040230586573
    Reference energy    (file100) = -152.121040230586516

    Input parameters:
    -----------------
    Wave function   =     CCSD_T
    Reference wfn   =     RHF
    Brueckner       =     No
    Memory (Mbytes) =     20000.0
    Maxiter         =     50
    R_Convergence   =     1.0e-07
    E_Convergence   =     1.0e-10
    Restart         =     Yes
    DIIS            =     Yes
    AO Basis        =     NONE
    ABCD            =     NEW
    Cache Level     =     2
    Cache Type      =     LOW
    Print Level     =     1
    Num. of threads =     1
    # Amps to Print =     10
    Print MP2 Amps? =     No
    Analyze T2 Amps =     No
    Print Pair Ener =     No
    Local CC        =     No
    SCS-MP2         =     False
    SCSN-MP2        =     False
    SCS-CCSD        =     False

MP2 correlation energy -0.5713618083556277
                Solving CC Amplitude Equations
                ------------------------------
  Iter             Energy              RMS        T1Diag      D1Diag    New D1Diag    D2Diag
  ----     ---------------------    ---------   ----------  ----------  ----------   --------
     0        -0.571361808355628    0.000e+00    0.000000    0.000000    0.000000    0.120414
     1        -0.567425463187860    5.091e-02    0.007789    0.018848    0.018848    0.122328
     2        -0.577608111323824    1.793e-02    0.007615    0.018521    0.018521    0.127062
     3        -0.580347341549493    7.075e-03    0.008849    0.022173    0.022173    0.129271
     4        -0.580078513171677    1.538e-03    0.009013    0.022690    0.022690    0.129481
     5        -0.580096165901805    5.932e-04    0.009102    0.023037    0.023037    0.129546
     6        -0.580112320991979    1.606e-04    0.009127    0.023138    0.023138    0.129546
     7        -0.580108790845912    5.912e-05    0.009132    0.023166    0.023166    0.129537
     8        -0.580107257485864    1.837e-05    0.009134    0.023174    0.023174    0.129535
     9        -0.580107495515601    7.054e-06    0.009134    0.023177    0.023177    0.129535
    10        -0.580107089380053    2.703e-06    0.009134    0.023178    0.023178    0.129535
    11        -0.580107061452041    1.044e-06    0.009134    0.023177    0.023177    0.129535
    12        -0.580107038693206    5.007e-07    0.009134    0.023177    0.023177    0.129535
    13        -0.580107028094067    1.902e-07    0.009134    0.023177    0.023177    0.129535
    14        -0.580107028119727    7.171e-08    0.009134    0.023177    0.023177    0.129535
[...]
  Nuclear repulsion =   35.936485724858827

  Charge       = 0
  Multiplicity = 1
  Electrons    = 20
  Nalpha       = 10
  Nbeta        = 10

  ==> Algorithm <==

  SCF Algorithm Type is PK.
  DIIS enabled.
  MOM disabled.
  Fractional occupation disabled.
  Guess Type is SAD.
  Energy threshold   = 1.00e-10
  Density threshold  = 1.00e-10
  Integral threshold = 1.00e-12

  ==> Primary Basis <==

  Basis Set: AUG-CC-PVTZ
    Blend: AUG-CC-PVTZ
    Number of shells: 64
    Number of basis functions: 184
    Number of Cartesian functions: 210
    Spherical Harmonics?: true
    Max angular momentum: 3

  ==> Integral Setup <==

  Using in-core PK algorithm.
   Calculation information:
      Number of atoms:                   6
      Number of AO shells:              64
      Number of primitives:            104
      Number of atomic orbitals:       210
      Number of basis functions:       184

      Integral cutoff                 1.00e-12
      Number of threads:                 1

  Performing in-core PK
  Using 289697420 doubles for integral storage.
  We computed 2042322 shell quartets total.
  Whereas there are 2164240 unique shell quartets.

  ==> DiskJK: Disk-Based J/K Matrices <==

    J tasked:                  Yes
    K tasked:                  Yes
    wK tasked:                  No
    Memory [MiB]:            14305
    Schwarz Cutoff:          1E-12

    OpenMP threads:              1

  Minimum eigenvalue in the overlap matrix is 2.3231760465E-04.
  Reciprocal condition number of the overlap matrix is 2.6725638221E-05.
    Using symmetric orthogonalization.

  ==> Pre-Iterations <==

  SCF Guess: Superposition of Atomic Densities via on-the-fly atomic UHF (no occupation information).

   -------------------------
    Irrep   Nso     Nmo    
   -------------------------
     A        184     184 
   -------------------------
    Total     184     184
   -------------------------

  ==> Iterations <==

                        Total Energy        Delta E     RMS |[F,P]|

   @RHF iter SAD:  -150.97274834313680   -1.50973e+02   0.00000e+00 
   @RHF iter   1:  -151.95840387204038   -9.85656e-01   3.52819e-03 DIIS/ADIIS
   @RHF iter   2:  -152.06033188454600   -1.01928e-01   2.38977e-03 DIIS/ADIIS
   @RHF iter   3:  -152.12007662806087   -5.97447e-02   1.70803e-04 DIIS/ADIIS
   @RHF iter   4:  -152.12091279138158   -8.36163e-04   4.04224e-05 DIIS
   @RHF iter   5:  -152.12096323894585   -5.04476e-05   1.14542e-05 DIIS
   @RHF iter   6:  -152.12096798774425   -4.74880e-06   5.23347e-06 DIIS
   @RHF iter   7:  -152.12096856691431   -5.79170e-07   1.25593e-06 DIIS
   @RHF iter   8:  -152.12096863799238   -7.10781e-08   2.14359e-07 DIIS
   @RHF iter   9:  -152.12096864006477   -2.07240e-09   3.98505e-08 DIIS
   @RHF iter  10:  -152.12096864012693   -6.21583e-11   1.17926e-08 DIIS
   @RHF iter  11:  -152.12096864013259   -5.65592e-12   2.56348e-09 DIIS
   @RHF iter  12:  -152.12096864013293   -3.41061e-13   4.57906e-10 DIIS
   @RHF iter  13:  -152.12096864013256    3.69482e-13   1.82159e-10 DIIS
   @RHF iter  14:  -152.12096864013247    8.52651e-14   3.72623e-11 DIIS
  Energy and wave function converged.


  ==> Post-Iterations <==

    Orbital Energies [Eh]
    ---------------------

    Doubly Occupied:                                                      

       1A    -20.577601     2A    -20.545307     3A     -1.361757  
       4A     -1.319513     5A     -0.723907     6A     -0.703914  
       7A     -0.595625     8A     -0.548095     9A     -0.521272  
      10A     -0.486113  

    Virtual:                                                              

      11A      0.025721    12A      0.042666    13A      0.049512  
      14A      0.071901    15A      0.129983    16A      0.149947  
      17A      0.158084    18A      0.171737    19A      0.178468  
      20A      0.187587    21A      0.213849    22A      0.232630  
      23A      0.241539    24A      0.247991    25A      0.261931  
      26A      0.286417    27A      0.309359    28A      0.321283  
      29A      0.337599    30A      0.369021    31A      0.382972  
      32A      0.389213    33A      0.410694    34A      0.436986  
      35A      0.449141    36A      0.466898    37A      0.478618  
      38A      0.524589    39A      0.588255    40A      0.637577  
      41A      0.668663    42A      0.687090    43A      0.695375  
      44A      0.740347    45A      0.746013    46A      0.755044  
      47A      0.783059    48A      0.793535    49A      0.827020  
      50A      0.851838    51A      0.860481    52A      0.887521  
      53A      0.900862    54A      0.919740    55A      0.930993  
      56A      0.943697    57A      0.961040    58A      0.969469  
      59A      0.995805    60A      1.000469    61A      1.033458  
      62A      1.040115    63A      1.051795    64A      1.063193  
      65A      1.087641    66A      1.088251    67A      1.110137  
      68A      1.137823    69A      1.159579    70A      1.175474  
      71A      1.195212    72A      1.229331    73A      1.250768  
      74A      1.283819    75A      1.349510    76A      1.367602  
      77A      1.416039    78A      1.511638    79A      1.570910  
      80A      1.602536    81A      1.609366    82A      1.680946  
      83A      1.691049    84A      1.744398    85A      1.806241  
      86A      1.828382    87A      1.851370    88A      1.960146  
      89A      2.006665    90A      2.046886    91A      2.139683  
      92A      2.190936    93A      2.296546    94A      2.307146  
      95A      2.332915    96A      2.368157    97A      2.390357  
      98A      2.437830    99A      2.445374   100A      2.465092  
     101A      2.480516   102A      2.501799   103A      2.545588  
     104A      2.556438   105A      2.587815   106A      2.621568  
     107A      2.662795   108A      2.736950   109A      2.769926  
     110A      2.784391   111A      2.813632   112A      2.825169  
     113A      2.862354   114A      2.927173   115A      3.000400  
     116A      3.030617   117A      3.675173   118A      3.701584  
     119A      3.769307   120A      3.876049   121A      4.033681  
     122A      4.054138   123A      4.151801   124A      4.177806  
     125A      4.212716   126A      4.241097   127A      4.272095  
     128A      4.284912   129A      4.375372   130A      4.389122  
     131A      4.415993   132A      4.449107   133A      4.456710  
     134A      4.493066   135A      4.511606   136A      4.542736  
     137A      4.628285   138A      4.644607   139A      4.722112  
     140A      4.770909   141A      4.851042   142A      4.923651  
     143A      5.119447   144A      5.149513   145A      5.164268  
     146A      5.180792   147A      5.274871   148A      5.314584  
     149A      5.362563   150A      5.372113   151A      5.468972  
     152A      5.570430   153A      5.732056   154A      5.813586  
     155A      6.090996   156A      6.263187   157A      6.538782  
     158A      6.604560   159A      6.755659   160A      6.781876  
     161A      6.836669   162A      6.924141   163A      7.145142  
     164A      7.172646   165A      7.270218   166A      7.281922  
     167A      7.285976   168A      7.299576   169A      7.337950  
     170A      7.344695   171A      7.375789   172A      7.384068  
     173A      7.445728   174A      7.469421   175A      7.555681  
     176A      7.670339   177A      7.846591   178A      7.873348  
     179A      7.968662   180A      8.050597   181A      8.702667  
     182A      8.829880   183A     15.589224   184A     15.891256  

    Final Occupation by Irrep:
              A 
    DOCC [    10 ]
    NA   [    10 ]
    NB   [    10 ]

  @RHF Final Energy:  -152.12096864013247

   => Energetics <=

    Nuclear Repulsion Energy =             35.9364857248588265
    One-Electron Energy =                -281.3487006983990568
    Two-Electron Energy =                  93.2912463334077557
    Total Energy =                       -152.1209686401325030

Computation Completed


Properties will be evaluated at   0.000000,   0.000000,   0.000000 [a0]

Properties computed using the SCF density matrix


 Multipole Moments:

 ------------------------------------------------------------------------------------
     Multipole            Electronic (a.u.)      Nuclear  (a.u.)        Total (a.u.)
 ------------------------------------------------------------------------------------

 L = 1.  Multiply by 2.5417464519 to convert [e a0] to [Debye]
 Dipole X            :         22.4434962          -22.3502416            0.0932546
 Dipole Y            :         66.8933196          -67.8076624           -0.9143428
 Dipole Z            :        106.1556620         -105.6736047            0.4820573
 Magnitude           :                                                    1.0378335

 ------------------------------------------------------------------------------------

*** tstop() called on d-19-15-2 at Wed Sep 20 03:45:54 2023
Module time:
	user time   =      17.38 seconds =       0.29 minutes
	system time =       0.42 seconds =       0.01 minutes
	total time  =         18 seconds =       0.30 minutes
Total time:
	user time   =  133856.83 seconds =    2230.95 minutes
	system time =   68813.31 seconds =    1146.89 minutes
	total time  =     226650 seconds =    3777.50 minutes
 MINTS: Wrapper to libmints.
   by Justin Turney

   Calculation information:
      Number of threads:                 1
      Number of atoms:                   6
      Number of AO shells:              64
      Number of SO shells:              64
      Number of primitives:            104
      Number of atomic orbitals:       210
      Number of basis functions:       184

      Number of irreps:                  1
      Integral cutoff                 1.00e-12
      Number of functions per irrep: [ 184 ]

 OEINTS: Overlap, kinetic, potential, dipole, and quadrupole integrals
         stored in file 35.

      Computing two-electron integrals...done
      Computed 132038905 non-zero two-electron integrals.
        Stored in file 33.


*** tstart() called on d-19-15-2
*** at Wed Sep 20 03:46:07 2023


	Wfn Parameters:
	--------------------
	Wavefunction         = CCSD_T
	Number of irreps     = 1
	Number of MOs        = 184
	Number of active MOs = 184
	AO-Basis             = NONE
	Semicanonical        = false
	Reference            = RHF
	Print Level          = 1

	IRREP	# MOs	# FZDC	# DOCC	# SOCC	# VIRT	# FZVR
	-----	-----	------	------	------	------	------
	 A	   184	    0	    10	    0	    174	    0
	Transforming integrals...
	IWL integrals will be deleted.
	(OO|OO)...
	Presorting SO-basis two-electron integrals.
	Sorting File: SO Ints (nn|nn) nbuckets = 1
	Constructing frozen core operators
	Starting first half-transformation.
	Sorting half-transformed integrals.
	First half integral transformation complete.
	Starting second half-transformation.
	Two-electron integral transformation complete.
	(OO|OV)...
	Starting second half-transformation.
	Two-electron integral transformation complete.
	(OO|VV)...
	Starting second half-transformation.
	Two-electron integral transformation complete.
	(OV|OO)...
	Starting first half-transformation.
	Sorting half-transformed integrals.
	First half integral transformation complete.
	Starting second half-transformation.
	Two-electron integral transformation complete.
	(OV|OV)...
	Starting second half-transformation.
	Two-electron integral transformation complete.
	(OV|VV)...
	Starting second half-transformation.
	Two-electron integral transformation complete.
	(VV|OO)...
	Starting first half-transformation.
	Sorting half-transformed integrals.
	First half integral transformation complete.
	Starting second half-transformation.
	Two-electron integral transformation complete.
	(VV|OV)...
	Starting second half-transformation.
	Two-electron integral transformation complete.
	(VV|VV)...
	Starting second half-transformation.
	Two-electron integral transformation complete.
	Frozen core energy     =      0.00000000000000

	Size of irrep 0 of <ab|cd> integrals:    916.636 (MW) /   7333.089 (MB)
	Total:                                   916.636 (MW) /   7333.089 (MB)

	Size of irrep 0 of <ia|bc> integrals:     52.680 (MW) /    421.442 (MB)
	Total:                                    52.680 (MW) /    421.442 (MB)

	Size of irrep 0 of tijab amplitudes:       3.028 (MW) /     24.221 (MB)
	Total:                                     3.028 (MW) /     24.221 (MB)

	Nuclear Rep. energy          =     35.93648572485883
	SCF energy                   =   -152.12096864013247
	One-electron energy          =   -281.34870068894674
	Two-electron energy          =     93.29124632395533
	Reference energy             =   -152.12096864013256

*** tstop() called on d-19-15-2 at Wed Sep 20 03:47:51 2023
Module time:
	user time   =      59.96 seconds =       1.00 minutes
	system time =      40.12 seconds =       0.67 minutes
	total time  =        104 seconds =       1.73 minutes
Total time:
	user time   =  133925.33 seconds =    2232.09 minutes
	system time =   68856.70 seconds =    1147.61 minutes
	total time  =     226767 seconds =    3779.45 minutes
            **************************
            *                        *
            *        CCENERGY        *
            *                        *
            **************************

    Nuclear Rep. energy (wfn)     =   35.936485724858827
    SCF energy          (wfn)     = -152.120968640132475
    Reference energy    (file100) = -152.120968640132560

    Input parameters:
    -----------------
    Wave function   =     CCSD_T
    Reference wfn   =     RHF
    Brueckner       =     No
    Memory (Mbytes) =     20000.0
    Maxiter         =     50
    R_Convergence   =     1.0e-07
    E_Convergence   =     1.0e-10
    Restart         =     Yes
    DIIS            =     Yes
    AO Basis        =     NONE
    ABCD            =     NEW
    Cache Level     =     2
    Cache Type      =     LOW
    Print Level     =     1
    Num. of threads =     1
    # Amps to Print =     10
    Print MP2 Amps? =     No
    Analyze T2 Amps =     No
    Print Pair Ener =     No
    Local CC        =     No
    SCS-MP2         =     False
    SCSN-MP2        =     False
    SCS-CCSD        =     False

MP2 correlation energy -0.5707252037247718
                Solving CC Amplitude Equations
                ------------------------------
  Iter             Energy              RMS        T1Diag      D1Diag    New D1Diag    D2Diag
  ----     ---------------------    ---------   ----------  ----------  ----------   --------
     0        -0.570725203724772    0.000e+00    0.000000    0.000000    0.000000    0.120402
     1        -0.566826715237330    5.088e-02    0.007791    0.018848    0.018848    0.122324
     2        -0.577003756337602    1.790e-02    0.007621    0.018534    0.018534    0.127063
     3        -0.579740685080010    7.056e-03    0.008860    0.022196    0.022196    0.129274
     4        -0.579462468934355    1.508e-03    0.009023    0.022713    0.022713    0.129478
     5        -0.579485436475777    5.732e-04    0.009113    0.023059    0.023059    0.129544
     6        -0.579499570068502    1.501e-04    0.009136    0.023155    0.023155    0.129542
     7        -0.579495737600918    5.553e-05    0.009141    0.023181    0.023181    0.129534
     8        -0.579494431858360    1.717e-05    0.009142    0.023188    0.023188    0.129532
     9        -0.579494697325845    6.850e-06    0.009143    0.023190    0.023190    0.129532
    10        -0.579494281730447    2.659e-06    0.009143    0.023191    0.023191    0.129531
    11        -0.579494268454384    1.008e-06    0.009143    0.023191    0.023191    0.129532
    12        -0.579494247029131    4.856e-07    0.009143    0.023191    0.023191    0.129532
    13        -0.579494237073090    1.812e-07    0.009143    0.023191    0.023191    0.129532
    14        -0.579494237556379    6.846e-08    0.009143    0.023191    0.023191    0.129532
    15        -0.579494238471531    2.786e-08    0.009143    0.023191    0.023191    0.129532
    16        -0.579494238294900    1.095e-08    0.009143    0.023191    0.023191    0.129532
    17        -0.579494238254592    4.372e-09    0.009143    0.023191    0.023191    0.129532
    18        -0.579494238263984    1.751e-09    0.009143    0.023191    0.023191    0.129532

    Iterations converged.


    Largest TIA Amplitudes:
              8   4        -0.0117807415
              9   9        -0.0104111923
              7   6         0.0075679903
              9  19         0.0074020312
              8  21        -0.0070556234
              8  15        -0.0068344630
              9  17         0.0063679143
              9  16        -0.0063137321
              8  22         0.0057625177
              8   5        -0.0057114043

    Largest TIjAb Amplitudes:
      4   4  25  25        -0.0136228722
      5   5  26  26        -0.0131940406
      4   4  30  30        -0.0087198488
      5   5  24  24        -0.0085083086
      7   7  34  34        -0.0078835597
      5   5  26  57         0.0077900447
      5   5  57  26         0.0077900447
      7   7  44  44        -0.0070727919
      4   4   9  25         0.0070665846
      4   4  25   9         0.0070665846

    SCF energy       (wfn)                    = -152.120968640132475
    Reference energy (file100)                = -152.120968640132560

    Opposite-spin MP2 correlation energy      =   -0.432678270794687
    Same-spin MP2 correlation energy          =   -0.138046932930085
    Singles MP2 correlation energy            =   -0.000000000000000
    MP2 correlation energy                    =   -0.570725203724772
      * MP2 total energy                      = -152.691693843857337

    Opposite-spin CCSD correlation energy     =   -0.456424526974145
    Same-spin CCSD correlation energy         =   -0.123069711289839
    Singles CCSD correlation energy           =    0.000000000000000
    CCSD correlation energy                   =   -0.579494238263984
      * CCSD total energy                     = -152.700462878396536

            **************************
            *                        *
            *        CCTRIPLES       *
            *                        *
            **************************


    Wave function   =    CCSD_T
    Reference wfn   =      RHF

    Nuclear Rep. energy (wfn)                =   35.936485724858827
    SCF energy          (wfn)                = -152.120968640132475
    Reference energy    (file100)            = -152.120968640132560
    CCSD energy         (file100)            =   -0.579494238263984
    Total CCSD energy   (file100)            = -152.700462878396536

    Number of ijk index combinations:              220
    Memory available in words               :      2500000000
    Approx. words needed per explicit thread:        21072096
    Number of threads for explicit ijk threading:    1

    MKL num_threads set to 1 for explicit threading.

    (T) energy                                =   -0.018065285480323
      * CCSD(T) total energy                  = -152.718528163876869


    Psi4 stopped on: Wednesday, 20 September 2023 03:54AM
    Psi4 wall time for execution: 0:09:15.05


  //>>>>>>>>>>>>>>>>>>>>>>>>>>>>>>>>>>>//
  //          ManyBody Results         //
  //<<<<<<<<<<<<<<<<<<<<<<<<<<<<<<<<<<<//


   ==> N-Body: Counterpoise Corrected (CP) energies <==

        n-Body     Total Energy            Interaction Energy                          N-body Contribution to Interaction Energy
                   [Eh]                    [Eh]                  [kcal/mol]            [Eh]                  [kcal/mol]
             1  N/A                         0.000000000000        0.000000000000        0.000000000000        0.000000000000
  FULL/RTN   2  N/A                        -0.005613072556       -3.522256205678       -0.005613072556       -3.522256205678


