        Number of 2-body computations:     3
        Number of 3-body computations:     1

    -----------------------------------------------------------------------
          Psi4: An Open-Source Ab Initio Electronic Structure Package
                               Psi4 1.7 release

                         Git: Rev {HEAD} 6ce35a5 


    D. G. A. Smith, L. A. Burns, A. C. Simmonett, R. M. Parrish,
    M. C. Schieber, R. Galvelis, P. Kraus, H. Kruse, R. Di Remigio,
    A. Alenaizan, A. M. James, S. Lehtola, J. P. Misiewicz, M. Scheurer,
    R. A. Shaw, J. B. Schriber, Y. Xie, Z. L. Glick, D. A. Sirianni,
    J. S. O'Brien, J. M. Waldrop, A. Kumar, E. G. Hohenstein,
    B. P. Pritchard, B. R. Brooks, H. F. Schaefer III, A. Yu. Sokolov,
    K. Patkowski, A. E. DePrince III, U. Bozkaya, R. A. King,
    F. A. Evangelista, J. M. Turney, T. D. Crawford, C. D. Sherrill,
    J. Chem. Phys. 152(18) 184108 (2020). https://doi.org/10.1063/5.0006002

                            Additional Code Authors
    E. T. Seidl, C. L. Janssen, E. F. Valeev, M. L. Leininger,
    J. F. Gonthier, R. M. Richard, H. R. McAlexander, M. Saitow, X. Wang,
    P. Verma, M. H. Lechner, A. Jiang, S. Behnle, A. G. Heide,
    M. F. Herbst, and D. L. Poole

             Previous Authors, Complete List of Code Contributors,
                       and Citations for Specific Modules
    https://github.com/psi4/psi4/blob/master/codemeta.json
    https://github.com/psi4/psi4/graphs/contributors
    http://psicode.org/psi4manual/master/introduction.html#citing-psifour

    -----------------------------------------------------------------------


    Psi4 started on: Sunday, 17 September 2023 12:48PM

    Process ID: 258105
    Host:       d-19-15-2
    PSIDATADIR: /home/gridsan/kfisher/.conda/envs/p4env/share/psi4
    Memory:     18.6 GiB
    Threads:    1
    
  ==> Input QCSchema <==

--------------------------------------------------------------------------
{'driver': 'energy',
 'extras': {'psiapi': True, 'wfn_qcvars_only': True},
 'id': None,
 'keywords': {'D_CONVERGENCE': 1e-10, 'E_CONVERGENCE': 1e-10, 'function_kwargs': {'dft_functional': 'scan-d3zero2b'}},
 'model': {'basis': 'aug-cc-pvtz', 'method': 'scf'},
 'molecule': {'atom_labels': ['', '', '', '', '', '', '', '', ''],
              'atomic_numbers': [1, 1, 8, 1, 1, 8, 1, 1, 8],
              'fix_com': True,
              'fix_orientation': True,
              'fix_symmetry': 'c1',
              'fragment_charges': [0.0, 0.0, 0.0],
              'fragment_multiplicities': [1, 1, 1],
              'fragments': [[0, 1, 2], [3, 4, 5], [6, 7, 8]],
              'geometry': [4.930977709142548, -1.606773672138038, 7.46030592474229, 5.01148950961494,
                           -1.4926735771555784, 4.465934005373784, 4.8777890618756645, -0.45616051699273374,
                           6.078679722294323, 3.0506362848771844, -3.440070099948471, 1.2538314323096662,
                           5.819459281137527, -4.275967396886011, 0.569630085956173, 4.786983186204713,
                           -3.486704440019078, 1.885606295737195, 8.301460307480024, -5.224337451153072,
                           -3.4852545665465815, 5.827424382270025, -3.626800306782002, -3.5241317320502743,
                           6.650210286917607, -5.129781168321755, -2.7836441371595697],
              'mass_numbers': [1, 1, 16, 1, 1, 16, 1, 1, 16],
              'masses': [1.00782503223, 1.00782503223, 15.99491461957, 1.00782503223, 1.00782503223, 15.99491461957,
                         1.00782503223, 1.00782503223, 15.99491461957],
              'molecular_charge': 0.0,
              'molecular_multiplicity': 1,
              'name': 'H6O3',
              'provenance': {'creator': 'QCElemental',
                             'routine': 'qcelemental.molparse.from_string',
                             'version': 'v0.25.1'},
              'real': [True, True, True, False, False, False, False, False, False],
              'schema_name': 'qcschema_molecule',
              'schema_version': 2,
              'symbols': ['H', 'H', 'O', 'H', 'H', 'O', 'H', 'H', 'O'],
              'validated': True},
 'protocols': {'stdout': True},
 'provenance': {'creator': 'QCElemental', 'routine': 'qcelemental.models.results', 'version': 'v0.25.1'},
 'schema_name': 'qcschema_input',
 'schema_version': 1}
--------------------------------------------------------------------------

Scratch directory: /home/gridsan/kfisher/scratch/

*** tstart() called on d-19-15-2
*** at Mon Sep 18 17:00:24 2023

   => Loading Basis Set <=

    Name: AUG-CC-PVTZ
    Role: ORBITAL
    Keyword: BASIS
    atoms 1-2, 4-5, 7-8 entry H          line    40 file /home/gridsan/kfisher/.conda/envs/p4env/share/psi4/basis/aug-cc-pvtz.gbs 
    atoms 3, 6, 9       entry O          line   331 file /home/gridsan/kfisher/.conda/envs/p4env/share/psi4/basis/aug-cc-pvtz.gbs 

   => SCAN-D3: Empirical Dispersion <=

    Grimme's -D3 (zero-damping) Dispersion Correction
    Grimme S.; Antony J.; Ehrlich S.; Krieg H. (2010), J. Chem. Phys., 132: 154104
    Parametrisation from:    J.G. Brandenburg, J. E. Bates, J. Sun, J.P. Perdew, Phys. Rev. B 94, 115144, 2016

        s6 =       1.000000
        s8 =       0.000000
       sr6 =       1.324000
    alpha6 =      14.000000
       sr8 =       1.000000


         ---------------------------------------------------------
                                   SCF
               by Justin Turney, Rob Parrish, Andy Simmonett
                          and Daniel G. A. Smith
                              RKS Reference
                        1 Threads,  19073 MiB Core
         ---------------------------------------------------------

  ==> Geometry <==

    Molecular point group: c1
    Full point group: C1

    Geometry (in Bohr), charge = 0, multiplicity = 1:

       Center              X                  Y                   Z               Mass       
    ------------   -----------------  -----------------  -----------------  -----------------
         H            4.930977709143    -1.606773672138     7.460305924742     1.007825032230
         H            5.011489509615    -1.492673577156     4.465934005374     1.007825032230
         O            4.877789061876    -0.456160516993     6.078679722294    15.994914619570
      Gh(H)           3.050636284877    -3.440070099948     1.253831432310     1.007825032230
      Gh(H)           5.819459281138    -4.275967396886     0.569630085956     1.007825032230
      Gh(O)           4.786983186205    -3.486704440019     1.885606295737    15.994914619570
      Gh(H)           8.301460307480    -5.224337451153    -3.485254566547     1.007825032230
      Gh(H)           5.827424382270    -3.626800306782    -3.524131732050     1.007825032230
      Gh(O)           6.650210286918    -5.129781168322    -2.783644137160    15.994914619570

  Running in c1 symmetry.

  Rotational constants: A =      0.06485  B =      0.02603  C =      0.01881 [cm^-1]
  Rotational constants: A =   1944.01521  B =    780.26895  C =    563.93030 [MHz]
  Nuclear repulsion =    8.943879682596720

  Charge       = 0
  Multiplicity = 1
  Electrons    = 10
  Nalpha       = 5
  Nbeta        = 5

  ==> Algorithm <==

  SCF Algorithm Type is DF.
  DIIS enabled.
  MOM disabled.
  Fractional occupation disabled.
  Guess Type is SAD.
  Energy threshold   = 1.00e-10
  Density threshold  = 1.00e-10
  Integral threshold = 1.00e-12

  ==> Primary Basis <==

  Basis Set: AUG-CC-PVTZ
    Blend: AUG-CC-PVTZ
    Number of shells: 96
    Number of basis functions: 276
    Number of Cartesian functions: 315
    Spherical Harmonics?: true
    Max angular momentum: 3

  ==> DFT Potential <==

   => Composite Functional: SCAN-D3ZERO2B <= 

    SCAN Meta-GGA XC Functional
(10.1103/PhysRevLett.115.036402)
    J. Sun, A. Ruzsinszky, J. P. Perdew  Phys. Rev. Lett. 115, 036402, 2015


    Deriv               =              1
    GGA                 =           TRUE
    Meta                =           TRUE

    Exchange Hybrid     =          FALSE
    MP2 Hybrid          =          FALSE

   => Exchange Functionals <=

    1.0000   XC_MGGA_X_SCAN

   => Correlation Functionals <=

    1.0000   XC_MGGA_C_SCAN

   => LibXC Density Thresholds  <==

    XC_MGGA_C_SCAN:  1.00E-15 
    XC_MGGA_X_SCAN:  1.00E-15 

   => Molecular Quadrature <=

    Radial Scheme          =       TREUTLER
    Pruning Scheme         =           NONE
    Nuclear Scheme         =       TREUTLER

    Blocking Scheme        =         OCTREE
    BS radius alpha        =              1
    Pruning alpha          =              1
    Radial Points          =             75
    Spherical Points       =            302
    Total Points           =         197647
    Total Blocks           =           1525
    Max Points             =            256
    Max Functions          =            258
    Weights Tolerance      =       1.00E-15

   => Loading Basis Set <=

    Name: (AUG-CC-PVTZ AUX)
    Role: JKFIT
    Keyword: DF_BASIS_SCF
    atoms 1-2, 4-5, 7-8 entry H          line    70 file /home/gridsan/kfisher/.conda/envs/p4env/share/psi4/basis/aug-cc-pvtz-jkfit.gbs 
    atoms 3, 6, 9       entry O          line   286 file /home/gridsan/kfisher/.conda/envs/p4env/share/psi4/basis/aug-cc-pvtz-jkfit.gbs 

  ==> Integral Setup <==

  DFHelper Memory: AOs need 0.327 GiB; user supplied 11.030 GiB. Using in-core AOs.

  ==> MemDFJK: Density-Fitted J/K Matrices <==

    J tasked:                   Yes
    K tasked:                    No
    wK tasked:                   No
    OpenMP threads:               1
    Memory [MiB]:             11294
    Algorithm:                 Core
    Schwarz Cutoff:           1E-12
    Mask sparsity (%):       7.5824
    Fitting Condition:        1E-10

   => Auxiliary Basis Set <=

  Basis Set: (AUG-CC-PVTZ AUX)
    Blend: AUG-CC-PVTZ-JKFIT
    Number of shells: 174
    Number of basis functions: 588
    Number of Cartesian functions: 723
    Spherical Harmonics?: true
    Max angular momentum: 4

  Cached 100.0% of DFT collocation blocks in 2.940 [GiB].

  Minimum eigenvalue in the overlap matrix is 1.5043280187E-04.
  Reciprocal condition number of the overlap matrix is 1.4490041527E-05.
    Using symmetric orthogonalization.

  ==> Pre-Iterations <==

  SCF Guess: Superposition of Atomic Densities via on-the-fly atomic UHF (no occupation information).

   -------------------------
    Irrep   Nso     Nmo    
   -------------------------
     A        276     276 
   -------------------------
    Total     276     276
   -------------------------

  ==> Iterations <==

                           Total Energy        Delta E     RMS |[F,P]|

   @DF-RKS iter SAD:   -76.04945091188534   -7.60495e+01   0.00000e+00 
   @DF-RKS iter   1:   -76.23979167361554   -1.90341e-01   2.64414e-03 DIIS/ADIIS
   @DF-RKS iter   2:   -75.62182246915829    6.17969e-01   5.10124e-03 DIIS/ADIIS
   @DF-RKS iter   3:   -76.42639419971006   -8.04572e-01   2.28949e-04 DIIS/ADIIS
   @DF-RKS iter   4:   -76.42828013539594   -1.88594e-03   2.80632e-05 DIIS
   @DF-RKS iter   5:   -76.42829948991850   -1.93545e-05   8.13100e-06 DIIS
   @DF-RKS iter   6:   -76.42830125314886   -1.76323e-06   6.85715e-07 DIIS
   @DF-RKS iter   7:   -76.42830126438032   -1.12315e-08   2.45843e-07 DIIS
   @DF-RKS iter   8:   -76.42830126615797   -1.77765e-09   4.66483e-08 DIIS
   @DF-RKS iter   9:   -76.42830126622691   -6.89369e-11   2.49071e-09 DIIS
   @DF-RKS iter  10:   -76.42830126622707   -1.56319e-13   2.74818e-10 DIIS
   @DF-RKS iter  11:   -76.42830126622698    8.52651e-14   2.99873e-11 DIIS
  Energy and wave function converged.


  ==> Post-Iterations <==

   Electrons on quadrature grid:
      Ntotal   =    9.9999978058 ; deviation = -2.194e-06 

    Orbital Energies [Eh]
    ---------------------

    Doubly Occupied:                                                      

       1A    -18.970540     2A     -0.970843     3A     -0.496397  
       4A     -0.350855     5A     -0.277279  

    Virtual:                                                              

       6A     -0.013452     7A      0.025127     8A      0.039810  
       9A      0.044803    10A      0.048275    11A      0.066019  
      12A      0.079955    13A      0.105495    14A      0.116720  
      15A      0.127507    16A      0.129929    17A      0.137463  
      18A      0.147780    19A      0.156259    20A      0.172376  
      21A      0.179303    22A      0.194940    23A      0.215639  
      24A      0.227802    25A      0.235104    26A      0.247499  
      27A      0.258148    28A      0.266086    29A      0.275786  
      30A      0.296444    31A      0.307393    32A      0.317778  
      33A      0.334947    34A      0.341209    35A      0.350957  
      36A      0.356141    37A      0.363692    38A      0.371009  
      39A      0.375169    40A      0.387541    41A      0.396141  
      42A      0.419562    43A      0.427188    44A      0.437452  
      45A      0.462682    46A      0.475462    47A      0.489248  
      48A      0.589026    49A      0.608233    50A      0.623908  
      51A      0.636493    52A      0.641804    53A      0.682896  
      54A      0.695275    55A      0.729466    56A      0.743212  
      57A      0.762425    58A      0.768057    59A      0.775904  
      60A      0.784474    61A      0.791101    62A      0.806645  
      63A      0.817675    64A      0.823947    65A      0.830883  
      66A      0.841290    67A      0.863071    68A      0.865300  
      69A      0.870471    70A      0.881567    71A      0.892626  
      72A      0.908754    73A      0.911343    74A      0.924604  
      75A      0.936148    76A      0.948572    77A      0.961459  
      78A      0.975071    79A      0.978278    80A      1.004727  
      81A      1.020295    82A      1.027008    83A      1.051190  
      84A      1.065408    85A      1.077653    86A      1.088139  
      87A      1.094463    88A      1.123870    89A      1.147833  
      90A      1.161268    91A      1.169290    92A      1.196053  
      93A      1.219143    94A      1.245049    95A      1.273507  
      96A      1.288792    97A      1.323215    98A      1.326578  
      99A      1.337134   100A      1.376373   101A      1.386687  
     102A      1.428562   103A      1.461214   104A      1.481621  
     105A      1.502668   106A      1.516081   107A      1.542842  
     108A      1.592694   109A      1.599213   110A      1.653826  
     111A      1.665897   112A      1.699220   113A      1.729478  
     114A      1.749796   115A      1.750668   116A      1.819164  
     117A      1.830757   118A      1.840208   119A      1.856113  
     120A      1.878716   121A      1.891678   122A      1.937219  
     123A      1.954797   124A      1.992105   125A      2.030771  
     126A      2.058151   127A      2.096566   128A      2.142361  
     129A      2.189487   130A      2.265643   131A      2.282399  
     132A      2.329548   133A      2.335887   134A      2.353494  
     135A      2.432807   136A      2.483307   137A      2.527960  
     138A      2.540359   139A      2.562694   140A      2.580666  
     141A      2.600741   142A      2.612116   143A      2.636796  
     144A      2.660753   145A      2.687837   146A      2.702142  
     147A      2.726108   148A      2.795149   149A      2.815422  
     150A      2.857349   151A      2.872967   152A      2.909656  
     153A      2.949173   154A      3.009220   155A      3.017765  
     156A      3.039013   157A      3.093941   158A      3.177088  
     159A      3.194003   160A      3.232582   161A      3.239440  
     162A      3.283759   163A      3.323358   164A      3.363706  
     165A      3.470252   166A      3.490129   167A      3.513400  
     168A      3.533979   169A      3.553806   170A      3.703748  
     171A      3.726026   172A      3.769484   173A      3.899362  
     174A      3.911631   175A      3.915329   176A      3.998108  
     177A      4.107691   178A      4.163416   179A      4.241800  
     180A      4.250565   181A      4.319593   182A      4.346101  
     183A      4.367893   184A      4.401494   185A      4.453370  
     186A      4.473647   187A      4.512045   188A      4.555664  
     189A      4.580012   190A      4.602295   191A      4.643364  
     192A      4.690345   193A      4.733500   194A      4.762149  
     195A      4.849324   196A      4.864743   197A      4.926918  
     198A      4.949715   199A      4.993022   200A      5.031861  
     201A      5.053202   202A      5.066427   203A      5.091760  
     204A      5.125676   205A      5.143515   206A      5.211736  
     207A      5.256259   208A      5.273500   209A      5.330301  
     210A      5.387418   211A      5.505831   212A      5.571072  
     213A      5.582836   214A      5.664246   215A      5.673876  
     216A      5.767362   217A      5.844840   218A      5.862359  
     219A      5.953691   220A      6.012252   221A      6.289466  
     222A      6.322368   223A      6.344594   224A      6.447007  
     225A      6.477714   226A      6.581649   227A      6.621151  
     228A      6.686163   229A      6.823816   230A      6.884620  
     231A      6.959982   232A      7.011348   233A      7.093968  
     234A      7.101429   235A      7.137872   236A      7.180481  
     237A      7.317522   238A      7.436901   239A      7.669890  
     240A      7.729066   241A      7.764830   242A      7.850901  
     243A      8.102254   244A      8.190339   245A      8.213405  
     246A      8.286053   247A      8.340650   248A      8.391701  
     249A      8.450975   250A      8.513077   251A      8.649788  
     252A      8.764946   253A      8.812708   254A      9.123682  
     255A      9.254850   256A      9.827361   257A      9.971395  
     258A     10.078384   259A     10.232159   260A     10.300370  
     261A     10.334522   262A     10.543028   263A     10.822088  
     264A     11.136177   265A     11.530387   266A     11.808546  
     267A     12.045965   268A     12.288723   269A     12.745263  
     270A     13.459190   271A     13.877059   272A     13.919707  
     273A     14.380049   274A     15.592106   275A     65.284868  
     276A     67.635887  

    Final Occupation by Irrep:
              A 
    DOCC [     5 ]
    NA   [     5 ]
    NB   [     5 ]

  @DF-RKS Final Energy:   -76.42830126622698

   => Energetics <=

    Nuclear Repulsion Energy =              8.9438796825967195
    One-Electron Energy =                -122.6119612168438096
    Two-Electron Energy =                  46.5147034541102897
    DFT Exchange-Correlation Energy =      -9.2749230160901686
    Empirical Dispersion Energy =          -0.0000001700000000
    VV10 Nonlocal Energy =                  0.0000000000000000
    Total Energy =                        -76.4283012662269812

Computation Completed


Properties will be evaluated at   0.000000,   0.000000,   0.000000 [a0]

Properties computed using the SCF density matrix


 Multipole Moments:

 ------------------------------------------------------------------------------------
     Multipole            Electronic (a.u.)      Nuclear  (a.u.)        Total (a.u.)
 ------------------------------------------------------------------------------------

 L = 1.  Multiply by 2.5417464519 to convert [e a0] to [Debye]
 Dipole X            :        -48.9048446           48.9647797            0.0599351
 Dipole Y            :          6.0440558           -6.7487314           -0.7046756
 Dipole Z            :        -60.6186527           60.5556777           -0.0629750
 Magnitude           :                                                    0.7100182

 ------------------------------------------------------------------------------------

*** tstop() called on d-19-15-2 at Mon Sep 18 17:01:31 2023
Module time:
	user time   =      55.42 seconds =       0.92 minutes
	system time =       0.58 seconds =       0.01 minutes
	total time  =         67 seconds =       1.12 minutes
Total time:
	user time   =   59804.63 seconds =     996.74 minutes
	system time =   30458.40 seconds =     507.64 minutes
	total time  =     101587 seconds =    1693.12 minutes

    Psi4 stopped on: Monday, 18 September 2023 05:01PM
    Psi4 wall time for execution: 0:01:07.19


    -----------------------------------------------------------------------
          Psi4: An Open-Source Ab Initio Electronic Structure Package
                               Psi4 1.7 release

                         Git: Rev {HEAD} 6ce35a5 


    D. G. A. Smith, L. A. Burns, A. C. Simmonett, R. M. Parrish,
    M. C. Schieber, R. Galvelis, P. Kraus, H. Kruse, R. Di Remigio,
    A. Alenaizan, A. M. James, S. Lehtola, J. P. Misiewicz, M. Scheurer,
    R. A. Shaw, J. B. Schriber, Y. Xie, Z. L. Glick, D. A. Sirianni,
    J. S. O'Brien, J. M. Waldrop, A. Kumar, E. G. Hohenstein,
    B. P. Pritchard, B. R. Brooks, H. F. Schaefer III, A. Yu. Sokolov,
    K. Patkowski, A. E. DePrince III, U. Bozkaya, R. A. King,
    F. A. Evangelista, J. M. Turney, T. D. Crawford, C. D. Sherrill,
    J. Chem. Phys. 152(18) 184108 (2020). https://doi.org/10.1063/5.0006002

                            Additional Code Authors
    E. T. Seidl, C. L. Janssen, E. F. Valeev, M. L. Leininger,
    J. F. Gonthier, R. M. Richard, H. R. McAlexander, M. Saitow, X. Wang,
    P. Verma, M. H. Lechner, A. Jiang, S. Behnle, A. G. Heide,
    M. F. Herbst, and D. L. Poole

             Previous Authors, Complete List of Code Contributors,
                       and Citations for Specific Modules
    https://github.com/psi4/psi4/blob/master/codemeta.json
    https://github.com/psi4/psi4/graphs/contributors
    http://psicode.org/psi4manual/master/introduction.html#citing-psifour

    -----------------------------------------------------------------------


    Psi4 started on: Sunday, 17 September 2023 12:48PM

    Process ID: 258105
    Host:       d-19-15-2
    PSIDATADIR: /home/gridsan/kfisher/.conda/envs/p4env/share/psi4
    Memory:     18.6 GiB
    Threads:    1
    
  ==> Input QCSchema <==

--------------------------------------------------------------------------
{'driver': 'energy',
 'extras': {'psiapi': True, 'wfn_qcvars_only': True},
 'id': None,
 'keywords': {'D_CONVERGENCE': 1e-10, 'E_CONVERGENCE': 1e-10, 'function_kwargs': {'dft_functional': 'scan-d3zero2b'}},
 'model': {'basis': 'aug-cc-pvtz', 'method': 'scf'},
 'molecule': {'atom_labels': ['', '', '', '', '', '', '', '', ''],
              'atomic_numbers': [1, 1, 8, 1, 1, 8, 1, 1, 8],
              'fix_com': True,
              'fix_orientation': True,
              'fix_symmetry': 'c1',
              'fragment_charges': [0.0, 0.0, 0.0],
              'fragment_multiplicities': [1, 1, 1],
              'fragments': [[0, 1, 2], [3, 4, 5], [6, 7, 8]],
              'geometry': [4.930977709142548, -1.606773672138038, 7.46030592474229, 5.01148950961494,
                           -1.4926735771555784, 4.465934005373784, 4.8777890618756645, -0.45616051699273374,
                           6.078679722294323, 3.0506362848771844, -3.440070099948471, 1.2538314323096662,
                           5.819459281137527, -4.275967396886011, 0.569630085956173, 4.786983186204713,
                           -3.486704440019078, 1.885606295737195, 8.301460307480024, -5.224337451153072,
                           -3.4852545665465815, 5.827424382270025, -3.626800306782002, -3.5241317320502743,
                           6.650210286917607, -5.129781168321755, -2.7836441371595697],
              'mass_numbers': [1, 1, 16, 1, 1, 16, 1, 1, 16],
              'masses': [1.00782503223, 1.00782503223, 15.99491461957, 1.00782503223, 1.00782503223, 15.99491461957,
                         1.00782503223, 1.00782503223, 15.99491461957],
              'molecular_charge': 0.0,
              'molecular_multiplicity': 1,
              'name': 'H6O3',
              'provenance': {'creator': 'QCElemental',
                             'routine': 'qcelemental.molparse.from_string',
                             'version': 'v0.25.1'},
              'real': [False, False, False, True, True, True, False, False, False],
              'schema_name': 'qcschema_molecule',
              'schema_version': 2,
              'symbols': ['H', 'H', 'O', 'H', 'H', 'O', 'H', 'H', 'O'],
              'validated': True},
 'protocols': {'stdout': True},
 'provenance': {'creator': 'QCElemental', 'routine': 'qcelemental.models.results', 'version': 'v0.25.1'},
 'schema_name': 'qcschema_input',
 'schema_version': 1}
--------------------------------------------------------------------------

Scratch directory: /home/gridsan/kfisher/scratch/

*** tstart() called on d-19-15-2
*** at Mon Sep 18 17:01:31 2023

   => Loading Basis Set <=

    Name: AUG-CC-PVTZ
    Role: ORBITAL
    Keyword: BASIS
    atoms 1-2, 4-5, 7-8 entry H          line    40 file /home/gridsan/kfisher/.conda/envs/p4env/share/psi4/basis/aug-cc-pvtz.gbs 
    atoms 3, 6, 9       entry O          line   331 file /home/gridsan/kfisher/.conda/envs/p4env/share/psi4/basis/aug-cc-pvtz.gbs 

   => SCAN-D3: Empirical Dispersion <=

    Grimme's -D3 (zero-damping) Dispersion Correction
    Grimme S.; Antony J.; Ehrlich S.; Krieg H. (2010), J. Chem. Phys., 132: 154104
    Parametrisation from:    J.G. Brandenburg, J. E. Bates, J. Sun, J.P. Perdew, Phys. Rev. B 94, 115144, 2016

        s6 =       1.000000
        s8 =       0.000000
       sr6 =       1.324000
    alpha6 =      14.000000
       sr8 =       1.000000


         ---------------------------------------------------------
                                   SCF
               by Justin Turney, Rob Parrish, Andy Simmonett
                          and Daniel G. A. Smith
                              RKS Reference
                        1 Threads,  19073 MiB Core
         ---------------------------------------------------------

  ==> Geometry <==

    Molecular point group: c1
    Full point group: C1

    Geometry (in Bohr), charge = 0, multiplicity = 1:

       Center              X                  Y                   Z               Mass       
    ------------   -----------------  -----------------  -----------------  -----------------
      Gh(H)           4.930977709143    -1.606773672138     7.460305924742     1.007825032230
      Gh(H)           5.011489509615    -1.492673577156     4.465934005374     1.007825032230
      Gh(O)           4.877789061876    -0.456160516993     6.078679722294    15.994914619570
         H            3.050636284877    -3.440070099948     1.253831432310     1.007825032230
         H            5.819459281138    -4.275967396886     0.569630085956     1.007825032230
         O            4.786983186205    -3.486704440019     1.885606295737    15.994914619570
      Gh(H)           8.301460307480    -5.224337451153    -3.485254566547     1.007825032230
      Gh(H)           5.827424382270    -3.626800306782    -3.524131732050     1.007825032230
      Gh(O)           6.650210286918    -5.129781168322    -2.783644137160    15.994914619570

  Running in c1 symmetry.

  Rotational constants: A =      0.06485  B =      0.02603  C =      0.01881 [cm^-1]
  Rotational constants: A =   1944.01521  B =    780.26895  C =    563.93030 [MHz]
  Nuclear repulsion =    8.990204587360747

  Charge       = 0
  Multiplicity = 1
  Electrons    = 10
  Nalpha       = 5
  Nbeta        = 5

  ==> Algorithm <==

  SCF Algorithm Type is DF.
  DIIS enabled.
  MOM disabled.
  Fractional occupation disabled.
  Guess Type is SAD.
  Energy threshold   = 1.00e-10
  Density threshold  = 1.00e-10
  Integral threshold = 1.00e-12

  ==> Primary Basis <==

  Basis Set: AUG-CC-PVTZ
    Blend: AUG-CC-PVTZ
    Number of shells: 96
    Number of basis functions: 276
    Number of Cartesian functions: 315
    Spherical Harmonics?: true
    Max angular momentum: 3

  ==> DFT Potential <==

   => Composite Functional: SCAN-D3ZERO2B <= 

    SCAN Meta-GGA XC Functional
(10.1103/PhysRevLett.115.036402)
    J. Sun, A. Ruzsinszky, J. P. Perdew  Phys. Rev. Lett. 115, 036402, 2015


    Deriv               =              1
    GGA                 =           TRUE
    Meta                =           TRUE

    Exchange Hybrid     =          FALSE
    MP2 Hybrid          =          FALSE

   => Exchange Functionals <=

    1.0000   XC_MGGA_X_SCAN

   => Correlation Functionals <=

    1.0000   XC_MGGA_C_SCAN

   => LibXC Density Thresholds  <==

    XC_MGGA_C_SCAN:  1.00E-15 
    XC_MGGA_X_SCAN:  1.00E-15 

   => Molecular Quadrature <=

    Radial Scheme          =       TREUTLER
    Pruning Scheme         =           NONE
    Nuclear Scheme         =       TREUTLER

    Blocking Scheme        =         OCTREE
    BS radius alpha        =              1
    Pruning alpha          =              1
    Radial Points          =             75
    Spherical Points       =            302
    Total Points           =         197647
    Total Blocks           =           1525
    Max Points             =            256
    Max Functions          =            258
    Weights Tolerance      =       1.00E-15

   => Loading Basis Set <=

    Name: (AUG-CC-PVTZ AUX)
    Role: JKFIT
    Keyword: DF_BASIS_SCF
    atoms 1-2, 4-5, 7-8 entry H          line    70 file /home/gridsan/kfisher/.conda/envs/p4env/share/psi4/basis/aug-cc-pvtz-jkfit.gbs 
    atoms 3, 6, 9       entry O          line   286 file /home/gridsan/kfisher/.conda/envs/p4env/share/psi4/basis/aug-cc-pvtz-jkfit.gbs 

  ==> Integral Setup <==

  DFHelper Memory: AOs need 0.327 GiB; user supplied 11.030 GiB. Using in-core AOs.

  ==> MemDFJK: Density-Fitted J/K Matrices <==

    J tasked:                   Yes
    K tasked:                    No
    wK tasked:                   No
    OpenMP threads:               1
    Memory [MiB]:             11294
    Algorithm:                 Core
    Schwarz Cutoff:           1E-12
    Mask sparsity (%):       7.5824
    Fitting Condition:        1E-10

   => Auxiliary Basis Set <=

  Basis Set: (AUG-CC-PVTZ AUX)
    Blend: AUG-CC-PVTZ-JKFIT
    Number of shells: 174
    Number of basis functions: 588
    Number of Cartesian functions: 723
    Spherical Harmonics?: true
    Max angular momentum: 4

  Cached 100.0% of DFT collocation blocks in 2.940 [GiB].

  Minimum eigenvalue in the overlap matrix is 1.5043280187E-04.
  Reciprocal condition number of the overlap matrix is 1.4490041527E-05.
    Using symmetric orthogonalization.

  ==> Pre-Iterations <==

  SCF Guess: Superposition of Atomic Densities via on-the-fly atomic UHF (no occupation information).

   -------------------------
    Irrep   Nso     Nmo    
   -------------------------
     A        276     276 
   -------------------------
    Total     276     276
   -------------------------

  ==> Iterations <==

                           Total Energy        Delta E     RMS |[F,P]|

   @DF-RKS iter SAD:   -76.05395351512350   -7.60540e+01   0.00000e+00 
   @DF-RKS iter   1:   -76.24321038336704   -1.89257e-01   2.64116e-03 DIIS/ADIIS
   @DF-RKS iter   2:   -75.63528538464125    6.07925e-01   5.07536e-03 DIIS/ADIIS
   @DF-RKS iter   3:   -76.42871405909214   -7.93429e-01   2.28384e-04 DIIS/ADIIS
   @DF-RKS iter   4:   -76.43058433643792   -1.87028e-03   2.78905e-05 DIIS
   @DF-RKS iter   5:   -76.43060310238756   -1.87659e-05   7.98223e-06 DIIS
   @DF-RKS iter   6:   -76.43060475804896   -1.65566e-06   4.50685e-07 DIIS
   @DF-RKS iter   7:   -76.43060476288453   -4.83557e-09   1.04282e-07 DIIS
   @DF-RKS iter   8:   -76.43060476319847   -3.13946e-10   1.18984e-08 DIIS
   @DF-RKS iter   9:   -76.43060476320265   -4.17799e-12   3.20477e-09 DIIS
   @DF-RKS iter  10:   -76.43060476320309   -4.40536e-13   1.46416e-10 DIIS
   @DF-RKS iter  11:   -76.43060476320296    1.27898e-13   1.10837e-11 DIIS
  Energy and wave function converged.


  ==> Post-Iterations <==

   Electrons on quadrature grid:
      Ntotal   =    9.9999995655 ; deviation = -4.345e-07 

    Orbital Energies [Eh]
    ---------------------

    Doubly Occupied:                                                      

       1A    -18.969881     2A     -0.972654     3A     -0.498001  
       4A     -0.351899     5A     -0.277740  

    Virtual:                                                              

       6A     -0.012360     7A      0.029130     8A      0.036657  
       9A      0.044744    10A      0.053224    11A      0.061173  
      12A      0.085936    13A      0.103345    14A      0.109741  
      15A      0.130258    16A      0.140221    17A      0.145253  
      18A      0.150874    19A      0.158349    20A      0.167304  
      21A      0.185965    22A      0.192886    23A      0.212126  
      24A      0.218739    25A      0.227244    26A      0.254608  
      27A      0.262778    28A      0.274840    29A      0.284924  
      30A      0.295657    31A      0.306574    32A      0.312964  
      33A      0.340582    34A      0.343607    35A      0.349952  
      36A      0.353839    37A      0.366181    38A      0.371899  
      39A      0.383456    40A      0.389352    41A      0.396917  
      42A      0.409323    43A      0.417756    44A      0.444204  
      45A      0.466764    46A      0.501884    47A      0.525002  
      48A      0.539937    49A      0.581119    50A      0.634831  
      51A      0.645626    52A      0.656638    53A      0.674720  
      54A      0.693969    55A      0.713631    56A      0.719609  
      57A      0.743897    58A      0.766405    59A      0.784931  
      60A      0.788789    61A      0.799580    62A      0.815782  
      63A      0.818823    64A      0.828923    65A      0.835118  
      66A      0.846824    67A      0.865759    68A      0.877995  
      69A      0.896906    70A      0.899274    71A      0.904535  
      72A      0.916136    73A      0.925208    74A      0.937974  
      75A      0.953542    76A      0.968367    77A      0.974339  
      78A      0.987986    79A      1.002829    80A      1.009986  
      81A      1.013245    82A      1.022814    83A      1.037424  
      84A      1.044730    85A      1.062009    86A      1.088865  
      87A      1.112790    88A      1.130482    89A      1.137347  
      90A      1.156263    91A      1.175914    92A      1.181012  
      93A      1.219226    94A      1.230502    95A      1.259421  
      96A      1.280221    97A      1.293812    98A      1.309898  
      99A      1.352028   100A      1.357721   101A      1.402141  
     102A      1.410279   103A      1.472780   104A      1.490833  
     105A      1.520905   106A      1.551310   107A      1.581554  
     108A      1.623774   109A      1.640820   110A      1.646607  
     111A      1.666313   112A      1.690178   113A      1.724924  
     114A      1.741258   115A      1.779561   116A      1.793104  
     117A      1.800884   118A      1.827509   119A      1.851316  
     120A      1.874698   121A      1.890671   122A      1.898760  
     123A      1.908404   124A      2.003886   125A      2.045669  
     126A      2.061759   127A      2.142069   128A      2.185728  
     129A      2.266789   130A      2.308562   131A      2.338422  
     132A      2.372873   133A      2.426544   134A      2.453466  
     135A      2.481759   136A      2.498886   137A      2.537531  
     138A      2.557260   139A      2.565570   140A      2.583439  
     141A      2.595747   142A      2.622799   143A      2.645289  
     144A      2.663662   145A      2.679799   146A      2.682218  
     147A      2.695929   148A      2.719110   149A      2.759507  
     150A      2.794463   151A      2.817997   152A      2.871611  
     153A      2.894349   154A      2.931103   155A      2.977672  
     156A      3.024409   157A      3.072315   158A      3.167589  
     159A      3.195872   160A      3.209137   161A      3.230151  
     162A      3.250074   163A      3.266947   164A      3.390353  
     165A      3.439437   166A      3.459963   167A      3.537762  
     168A      3.550365   169A      3.596819   170A      3.610914  
     171A      3.673017   172A      3.731811   173A      3.880901  
     174A      3.934447   175A      3.987488   176A      4.018368  
     177A      4.220184   178A      4.235181   179A      4.275065  
     180A      4.361784   181A      4.417464   182A      4.447068  
     183A      4.460282   184A      4.483348   185A      4.501017  
     186A      4.528662   187A      4.541616   188A      4.583713  
     189A      4.610578   190A      4.640425   191A      4.665580  
     192A      4.730310   193A      4.734567   194A      4.755348  
     195A      4.826066   196A      4.883776   197A      4.893420  
     198A      4.931202   199A      5.013070   200A      5.041794  
     201A      5.068920   202A      5.076008   203A      5.094485  
     204A      5.144459   205A      5.245403   206A      5.270293  
     207A      5.341809   208A      5.382948   209A      5.484316  
     210A      5.488595   211A      5.530954   212A      5.601294  
     213A      5.642392   214A      5.678056   215A      5.758468  
     216A      5.803947   217A      5.850171   218A      5.959053  
     219A      5.992684   220A      6.020516   221A      6.295318  
     222A      6.363771   223A      6.372344   224A      6.406086  
     225A      6.562542   226A      6.651786   227A      6.709292  
     228A      6.799557   229A      6.841668   230A      6.933107  
     231A      6.973243   232A      7.024377   233A      7.084663  
     234A      7.117034   235A      7.174943   236A      7.229833  
     237A      7.408277   238A      7.549705   239A      7.675604  
     240A      7.726292   241A      7.746536   242A      7.850551  
     243A      7.919220   244A      8.001558   245A      8.133702  
     246A      8.228325   247A      8.284369   248A      8.308796  
     249A      8.356242   250A      8.509397   251A      8.541248  
     252A      8.814857   253A      8.838572   254A      8.904451  
     255A      9.049423   256A      9.698287   257A      9.872275  
     258A      9.928116   259A     10.064721   260A     10.152512  
     261A     10.195697   262A     10.377621   263A     10.417787  
     264A     11.204401   265A     11.217792   266A     11.799756  
     267A     11.876333   268A     12.190856   269A     12.389418  
     270A     13.526642   271A     13.541574   272A     13.946408  
     273A     14.011743   274A     15.928024   275A     65.581251  
     276A     65.936168  

    Final Occupation by Irrep:
              A 
    DOCC [     5 ]
    NA   [     5 ]
    NB   [     5 ]

  @DF-RKS Final Energy:   -76.43060476320296

   => Energetics <=

    Nuclear Repulsion Energy =              8.9902045873607470
    One-Electron Energy =                -122.6976548960802518
    Two-Electron Energy =                  46.5566638572996396
    DFT Exchange-Correlation Energy =      -9.2798181517830951
    Empirical Dispersion Energy =          -0.0000001600000000
    VV10 Nonlocal Energy =                  0.0000000000000000
    Total Energy =                        -76.4306047632029504

Computation Completed


Properties will be evaluated at   0.000000,   0.000000,   0.000000 [a0]

Properties computed using the SCF density matrix


 Multipole Moments:

 ------------------------------------------------------------------------------------
     Multipole            Electronic (a.u.)      Nuclear  (a.u.)        Total (a.u.)
 ------------------------------------------------------------------------------------

 L = 1.  Multiply by 2.5417464519 to convert [e a0] to [Debye]
 Dipole X            :        -47.3930209           47.1659611           -0.2270599
 Dipole Y            :         35.3699197          -35.6096730           -0.2397533
 Dipole Z            :        -17.5365301           16.9083119           -0.6282182
 Magnitude           :                                                    0.7097154

 ------------------------------------------------------------------------------------

*** tstop() called on d-19-15-2 at Mon Sep 18 17:02:57 2023
Module time:
	user time   =      54.33 seconds =       0.91 minutes
	system time =       1.58 seconds =       0.03 minutes
	total time  =         86 seconds =       1.43 minutes
Total time:
	user time   =   59859.03 seconds =     997.65 minutes
	system time =   30459.99 seconds =     507.67 minutes
	total time  =     101673 seconds =    1694.55 minutes

    Psi4 stopped on: Monday, 18 September 2023 05:02PM
    Psi4 wall time for execution: 0:01:26.33


    -----------------------------------------------------------------------
          Psi4: An Open-Source Ab Initio Electronic Structure Package
                               Psi4 1.7 release

                         Git: Rev {HEAD} 6ce35a5 


    D. G. A. Smith, L. A. Burns, A. C. Simmonett, R. M. Parrish,
    M. C. Schieber, R. Galvelis, P. Kraus, H. Kruse, R. Di Remigio,
    A. Alenaizan, A. M. James, S. Lehtola, J. P. Misiewicz, M. Scheurer,
    R. A. Shaw, J. B. Schriber, Y. Xie, Z. L. Glick, D. A. Sirianni,
    J. S. O'Brien, J. M. Waldrop, A. Kumar, E. G. Hohenstein,
    B. P. Pritchard, B. R. Brooks, H. F. Schaefer III, A. Yu. Sokolov,
    K. Patkowski, A. E. DePrince III, U. Bozkaya, R. A. King,
    F. A. Evangelista, J. M. Turney, T. D. Crawford, C. D. Sherrill,
    J. Chem. Phys. 152(18) 184108 (2020). https://doi.org/10.1063/5.0006002

                            Additional Code Authors
    E. T. Seidl, C. L. Janssen, E. F. Valeev, M. L. Leininger,
    J. F. Gonthier, R. M. Richard, H. R. McAlexander, M. Saitow, X. Wang,
    P. Verma, M. H. Lechner, A. Jiang, S. Behnle, A. G. Heide,
    M. F. Herbst, and D. L. Poole

             Previous Authors, Complete List of Code Contributors,
                       and Citations for Specific Modules
    https://github.com/psi4/psi4/blob/master/codemeta.json
    https://github.com/psi4/psi4/graphs/contributors
    http://psicode.org/psi4manual/master/introduction.html#citing-psifour

    -----------------------------------------------------------------------


    Psi4 started on: Sunday, 17 September 2023 12:48PM

    Process ID: 258105
    Host:       d-19-15-2
    PSIDATADIR: /home/gridsan/kfisher/.conda/envs/p4env/share/psi4
    Memory:     18.6 GiB
    Threads:    1
    
  ==> Input QCSchema <==

--------------------------------------------------------------------------
{'driver': 'energy',
 'extras': {'psiapi': True, 'wfn_qcvars_only': True},
 'id': None,
 'keywords': {'D_CONVERGENCE': 1e-10, 'E_CONVERGENCE': 1e-10, 'function_kwargs': {'dft_functional': 'scan-d3zero2b'}},
 'model': {'basis': 'aug-cc-pvtz', 'method': 'scf'},
 'molecule': {'atom_labels': ['', '', '', '', '', '', '', '', ''],
              'atomic_numbers': [1, 1, 8, 1, 1, 8, 1, 1, 8],
              'fix_com': True,
              'fix_orientation': True,
              'fix_symmetry': 'c1',
              'fragment_charges': [0.0, 0.0, 0.0],
              'fragment_multiplicities': [1, 1, 1],
              'fragments': [[0, 1, 2], [3, 4, 5], [6, 7, 8]],
              'geometry': [4.930977709142548, -1.606773672138038, 7.46030592474229, 5.01148950961494,
                           -1.4926735771555784, 4.465934005373784, 4.8777890618756645, -0.45616051699273374,
                           6.078679722294323, 3.0506362848771844, -3.440070099948471, 1.2538314323096662,
                           5.819459281137527, -4.275967396886011, 0.569630085956173, 4.786983186204713,
                           -3.486704440019078, 1.885606295737195, 8.301460307480024, -5.224337451153072,
                           -3.4852545665465815, 5.827424382270025, -3.626800306782002, -3.5241317320502743,
                           6.650210286917607, -5.129781168321755, -2.7836441371595697],
              'mass_numbers': [1, 1, 16, 1, 1, 16, 1, 1, 16],
              'masses': [1.00782503223, 1.00782503223, 15.99491461957, 1.00782503223, 1.00782503223, 15.99491461957,
                         1.00782503223, 1.00782503223, 15.99491461957],
              'molecular_charge': 0.0,
              'molecular_multiplicity': 1,
              'name': 'H6O3',
              'provenance': {'creator': 'QCElemental',
                             'routine': 'qcelemental.molparse.from_string',
                             'version': 'v0.25.1'},
              'real': [False, False, False, True, True, True, True, True, True],
              'schema_name': 'qcschema_molecule',
              'schema_version': 2,
              'symbols': ['H', 'H', 'O', 'H', 'H', 'O', 'H', 'H', 'O'],
              'validated': True},
 'protocols': {'stdout': True},
 'provenance': {'creator': 'QCElemental', 'routine': 'qcelemental.models.results', 'version': 'v0.25.1'},
 'schema_name': 'qcschema_input',
 'schema_version': 1}
--------------------------------------------------------------------------

Scratch directory: /home/gridsan/kfisher/scratch/

*** tstart() called on d-19-15-2
*** at Mon Sep 18 17:02:58 2023

   => Loading Basis Set <=

    Name: AUG-CC-PVTZ
    Role: ORBITAL
    Keyword: BASIS
    atoms 1-2, 4-5, 7-8 entry H          line    40 file /home/gridsan/kfisher/.conda/envs/p4env/share/psi4/basis/aug-cc-pvtz.gbs 
    atoms 3, 6, 9       entry O          line   331 file /home/gridsan/kfisher/.conda/envs/p4env/share/psi4/basis/aug-cc-pvtz.gbs 

   => SCAN-D3: Empirical Dispersion <=

    Grimme's -D3 (zero-damping) Dispersion Correction
    Grimme S.; Antony J.; Ehrlich S.; Krieg H. (2010), J. Chem. Phys., 132: 154104
    Parametrisation from:    J.G. Brandenburg, J. E. Bates, J. Sun, J.P. Perdew, Phys. Rev. B 94, 115144, 2016

        s6 =       1.000000
        s8 =       0.000000
       sr6 =       1.324000
    alpha6 =      14.000000
       sr8 =       1.000000


         ---------------------------------------------------------
                                   SCF
               by Justin Turney, Rob Parrish, Andy Simmonett
                          and Daniel G. A. Smith
                              RKS Reference
                        1 Threads,  19073 MiB Core
         ---------------------------------------------------------

  ==> Geometry <==

    Molecular point group: c1
    Full point group: C1

    Geometry (in Bohr), charge = 0, multiplicity = 1:

       Center              X                  Y                   Z               Mass       
    ------------   -----------------  -----------------  -----------------  -----------------
      Gh(H)           4.930977709143    -1.606773672138     7.460305924742     1.007825032230
      Gh(H)           5.011489509615    -1.492673577156     4.465934005374     1.007825032230
      Gh(O)           4.877789061876    -0.456160516993     6.078679722294    15.994914619570
         H            3.050636284877    -3.440070099948     1.253831432310     1.007825032230
         H            5.819459281138    -4.275967396886     0.569630085956     1.007825032230
         O            4.786983186205    -3.486704440019     1.885606295737    15.994914619570
         H            8.301460307480    -5.224337451153    -3.485254566547     1.007825032230
         H            5.827424382270    -3.626800306782    -3.524131732050     1.007825032230
         O            6.650210286918    -5.129781168322    -2.783644137160    15.994914619570

  Running in c1 symmetry.

  Rotational constants: A =      0.06485  B =      0.02603  C =      0.01881 [cm^-1]
  Rotational constants: A =   1944.01521  B =    780.26895  C =    563.93030 [MHz]
  Nuclear repulsion =   37.249118605298023

  Charge       = 0
  Multiplicity = 1
  Electrons    = 20
  Nalpha       = 10
  Nbeta        = 10

  ==> Algorithm <==

  SCF Algorithm Type is DF.
  DIIS enabled.
  MOM disabled.
  Fractional occupation disabled.
  Guess Type is SAD.
  Energy threshold   = 1.00e-10
  Density threshold  = 1.00e-10
  Integral threshold = 1.00e-12

  ==> Primary Basis <==

  Basis Set: AUG-CC-PVTZ
    Blend: AUG-CC-PVTZ
    Number of shells: 96
    Number of basis functions: 276
    Number of Cartesian functions: 315
    Spherical Harmonics?: true
    Max angular momentum: 3

  ==> DFT Potential <==

   => Composite Functional: SCAN-D3ZERO2B <= 

    SCAN Meta-GGA XC Functional
(10.1103/PhysRevLett.115.036402)
    J. Sun, A. Ruzsinszky, J. P. Perdew  Phys. Rev. Lett. 115, 036402, 2015


    Deriv               =              1
    GGA                 =           TRUE
    Meta                =           TRUE

    Exchange Hybrid     =          FALSE
    MP2 Hybrid          =          FALSE

   => Exchange Functionals <=

    1.0000   XC_MGGA_X_SCAN

   => Correlation Functionals <=

    1.0000   XC_MGGA_C_SCAN

   => LibXC Density Thresholds  <==

    XC_MGGA_C_SCAN:  1.00E-15 
    XC_MGGA_X_SCAN:  1.00E-15 

   => Molecular Quadrature <=

    Radial Scheme          =       TREUTLER
    Pruning Scheme         =           NONE
    Nuclear Scheme         =       TREUTLER

    Blocking Scheme        =         OCTREE
    BS radius alpha        =              1
    Pruning alpha          =              1
    Radial Points          =             75
    Spherical Points       =            302
    Total Points           =         197647
    Total Blocks           =           1525
    Max Points             =            256
    Max Functions          =            258
    Weights Tolerance      =       1.00E-15

   => Loading Basis Set <=

    Name: (AUG-CC-PVTZ AUX)
    Role: JKFIT
    Keyword: DF_BASIS_SCF
    atoms 1-2, 4-5, 7-8 entry H          line    70 file /home/gridsan/kfisher/.conda/envs/p4env/share/psi4/basis/aug-cc-pvtz-jkfit.gbs 
    atoms 3, 6, 9       entry O          line   286 file /home/gridsan/kfisher/.conda/envs/p4env/share/psi4/basis/aug-cc-pvtz-jkfit.gbs 

  ==> Integral Setup <==

  DFHelper Memory: AOs need 0.327 GiB; user supplied 11.030 GiB. Using in-core AOs.

  ==> MemDFJK: Density-Fitted J/K Matrices <==

    J tasked:                   Yes
    K tasked:                    No
    wK tasked:                   No
    OpenMP threads:               1
    Memory [MiB]:             11294
    Algorithm:                 Core
    Schwarz Cutoff:           1E-12
    Mask sparsity (%):       7.5824
    Fitting Condition:        1E-10

   => Auxiliary Basis Set <=

  Basis Set: (AUG-CC-PVTZ AUX)
    Blend: AUG-CC-PVTZ-JKFIT
    Number of shells: 174
    Number of basis functions: 588
    Number of Cartesian functions: 723
    Spherical Harmonics?: true
    Max angular momentum: 4

  Cached 100.0% of DFT collocation blocks in 2.940 [GiB].

  Minimum eigenvalue in the overlap matrix is 1.5043280187E-04.
  Reciprocal condition number of the overlap matrix is 1.4490041527E-05.
    Using symmetric orthogonalization.

  ==> Pre-Iterations <==

  SCF Guess: Superposition of Atomic Densities via on-the-fly atomic UHF (no occupation information).

   -------------------------
    Irrep   Nso     Nmo    
   -------------------------
     A        276     276 
   -------------------------
    Total     276     276
   -------------------------

  ==> Iterations <==

                           Total Energy        Delta E     RMS |[F,P]|

   @DF-RKS iter SAD:  -152.17578515271848   -1.52176e+02   0.00000e+00 
   @DF-RKS iter   1:  -152.51420925950629   -3.38424e-01   3.65243e-03 DIIS/ADIIS
   @DF-RKS iter   2:  -151.38388012464529    1.13033e+00   6.89379e-03 DIIS/ADIIS
   @DF-RKS iter   3:  -152.86045870738923   -1.47658e+00   4.70484e-04 DIIS/ADIIS
   @DF-RKS iter   4:  -152.86127447358189   -8.15766e-04   5.01863e-04 DIIS/ADIIS
   @DF-RKS iter   5:  -152.86771129415303   -6.43682e-03   4.43069e-05 DIIS
   @DF-RKS iter   6:  -152.86776438736484   -5.30932e-05   1.14838e-05 DIIS
   @DF-RKS iter   7:  -152.86776822564570   -3.83828e-06   1.27237e-06 DIIS
   @DF-RKS iter   8:  -152.86776826782619   -4.21805e-08   3.33859e-07 DIIS
   @DF-RKS iter   9:  -152.86776827101195   -3.18576e-09   4.36666e-08 DIIS
   @DF-RKS iter  10:  -152.86776827107448   -6.25278e-11   6.32960e-09 DIIS
   @DF-RKS iter  11:  -152.86776827107542   -9.37916e-13   1.00181e-09 DIIS
   @DF-RKS iter  12:  -152.86776827107576   -3.41061e-13   1.22780e-10 DIIS
   @DF-RKS iter  13:  -152.86776827107593   -1.70530e-13   3.00058e-11 DIIS
  Energy and wave function converged.


  ==> Post-Iterations <==

   Electrons on quadrature grid:
      Ntotal   =   20.0000004471 ; deviation = 4.471e-07 

    Orbital Energies [Eh]
    ---------------------

    Doubly Occupied:                                                      

       1A    -18.997566     2A    -18.939906     3A     -1.007737  
       4A     -0.945018     5A     -0.530975     6A     -0.473817  
       7A     -0.387624     8A     -0.329862     9A     -0.302132  
      10A     -0.252901  

    Virtual:                                                              

      11A     -0.026777    12A      0.016130    13A      0.029090  
      14A      0.045915    15A      0.052292    16A      0.057056  
      17A      0.078124    18A      0.103505    19A      0.107200  
      20A      0.113746    21A      0.131051    22A      0.138153  
      23A      0.149174    24A      0.153951    25A      0.161179  
      26A      0.167979    27A      0.180578    28A      0.186476  
      29A      0.195835    30A      0.209194    31A      0.230434  
      32A      0.243777    33A      0.254936    34A      0.268168  
      35A      0.291556    36A      0.297913    37A      0.305725  
      38A      0.314228    39A      0.330254    40A      0.343767  
      41A      0.346177    42A      0.352806    43A      0.358017  
      44A      0.366719    45A      0.378878    46A      0.387448  
      47A      0.388684    48A      0.409549    49A      0.419032  
      50A      0.456165    51A      0.488608    52A      0.500533  
      53A      0.512127    54A      0.540747    55A      0.557377  
      56A      0.577913    57A      0.620815    58A      0.638389  
      59A      0.644733    60A      0.661266    61A      0.675102  
      62A      0.705140    63A      0.713006    64A      0.728771  
      65A      0.742442    66A      0.756493    67A      0.786481  
      68A      0.803427    69A      0.811874    70A      0.822122  
      71A      0.827148    72A      0.841866    73A      0.847347  
      74A      0.855193    75A      0.867583    76A      0.875159  
      77A      0.901682    78A      0.905258    79A      0.924104  
      80A      0.929668    81A      0.944675    82A      0.957450  
      83A      0.963899    84A      0.979010    85A      1.003642  
      86A      1.007581    87A      1.010908    88A      1.028584  
      89A      1.040556    90A      1.053710    91A      1.070205  
      92A      1.080565    93A      1.088053    94A      1.093753  
      95A      1.106929    96A      1.128442    97A      1.162155  
      98A      1.181416    99A      1.187384   100A      1.199038  
     101A      1.219841   102A      1.230009   103A      1.279403  
     104A      1.304431   105A      1.338008   106A      1.346715  
     107A      1.397365   108A      1.411186   109A      1.453070  
     110A      1.463042   111A      1.508623   112A      1.538631  
     113A      1.547655   114A      1.593118   115A      1.615119  
     116A      1.640900   117A      1.655418   118A      1.672773  
     119A      1.683090   120A      1.689222   121A      1.732073  
     122A      1.788616   123A      1.799592   124A      1.814368  
     125A      1.845798   126A      1.858598   127A      1.888506  
     128A      1.914645   129A      1.945498   130A      2.006607  
     131A      2.047557   132A      2.107031   133A      2.140895  
     134A      2.181358   135A      2.202775   136A      2.255415  
     137A      2.271780   138A      2.295654   139A      2.305858  
     140A      2.342596   141A      2.350761   142A      2.376556  
     143A      2.440611   144A      2.480034   145A      2.485382  
     146A      2.505937   147A      2.521294   148A      2.535496  
     149A      2.567751   150A      2.575850   151A      2.604734  
     152A      2.641146   153A      2.648148   154A      2.656668  
     155A      2.685978   156A      2.699636   157A      2.715861  
     158A      2.734795   159A      2.763195   160A      2.799400  
     161A      2.820824   162A      2.859095   163A      2.907568  
     164A      3.000068   165A      3.052157   166A      3.104439  
     167A      3.233844   168A      3.257820   169A      3.448720  
     170A      3.518284   171A      3.555078   172A      3.588502  
     173A      3.608205   174A      3.635551   175A      3.710865  
     176A      3.857142   177A      3.902085   178A      3.943704  
     179A      3.962330   180A      3.988888   181A      4.039094  
     182A      4.092852   183A      4.152439   184A      4.225861  
     185A      4.237129   186A      4.257725   187A      4.281214  
     188A      4.320789   189A      4.359814   190A      4.425708  
     191A      4.441345   192A      4.462236   193A      4.487906  
     194A      4.497940   195A      4.502090   196A      4.527395  
     197A      4.552113   198A      4.595872   199A      4.629110  
     200A      4.676789   201A      4.736691   202A      4.752909  
     203A      4.797275   204A      4.834406   205A      4.899770  
     206A      4.998232   207A      5.018165   208A      5.060832  
     209A      5.090624   210A      5.113344   211A      5.123476  
     212A      5.147870   213A      5.169974   214A      5.199356  
     215A      5.298588   216A      5.400161   217A      5.402421  
     218A      5.510781   219A      5.552533   220A      5.584798  
     221A      5.659414   222A      5.690281   223A      5.781311  
     224A      5.953176   225A      5.995846   226A      6.009784  
     227A      6.033303   228A      6.270861   229A      6.383282  
     230A      6.417170   231A      6.497676   232A      6.585176  
     233A      6.626183   234A      6.670571   235A      6.812661  
     236A      6.842450   237A      6.892526   238A      6.929146  
     239A      6.945513   240A      6.954419   241A      6.987932  
     242A      7.009225   243A      7.049224   244A      7.086930  
     245A      7.108505   246A      7.167949   247A      7.185774  
     248A      7.228825   249A      7.368479   250A      7.446909  
     251A      7.546848   252A      7.622208   253A      7.709264  
     254A      7.736660   255A      7.773483   256A      7.818551  
     257A      7.870950   258A      8.148445   259A      8.326630  
     260A      8.379668   261A      8.509037   262A      8.573032  
     263A      8.846456   264A      9.080958   265A      9.710439  
     266A      9.885035   267A     10.166675   268A     10.393037  
     269A     11.235693   270A     11.813923   271A     12.206454  
     272A     13.549671   273A     14.030524   274A     15.325064  
     275A     16.037594   276A     65.605931  

    Final Occupation by Irrep:
              A 
    DOCC [    10 ]
    NA   [    10 ]
    NB   [    10 ]

  @DF-RKS Final Energy:  -152.86776827107593

   => Energetics <=

    Nuclear Repulsion Energy =             37.2491186052980225
    One-Electron Energy =                -283.8754531752039156
    Two-Electron Energy =                 112.3448188941061971
    DFT Exchange-Correlation Energy =     -18.5860820452762212
    Empirical Dispersion Energy =          -0.0001705500000000
    VV10 Nonlocal Energy =                  0.0000000000000000
    Total Energy =                       -152.8677682710759314

Computation Completed


Properties will be evaluated at   0.000000,   0.000000,   0.000000 [a0]

Properties computed using the SCF density matrix


 Multipole Moments:

 ------------------------------------------------------------------------------------
     Multipole            Electronic (a.u.)      Nuclear  (a.u.)        Total (a.u.)
 ------------------------------------------------------------------------------------

 L = 1.  Multiply by 2.5417464519 to convert [e a0] to [Debye]
 Dipole X            :       -114.3285343          114.4965280            0.1679938
 Dipole Y            :         85.6321120          -85.4990601            0.1330519
 Dipole Z            :         11.0532455          -12.3702275           -1.3169820
 Magnitude           :                                                    1.3343037

 ------------------------------------------------------------------------------------

*** tstop() called on d-19-15-2 at Mon Sep 18 17:04:16 2023
Module time:
	user time   =      64.89 seconds =       1.08 minutes
	system time =       0.67 seconds =       0.01 minutes
	total time  =         78 seconds =       1.30 minutes
Total time:
	user time   =   59924.06 seconds =     998.73 minutes
	system time =   30460.69 seconds =     507.68 minutes
	total time  =     101752 seconds =    1695.87 minutes

    Psi4 stopped on: Monday, 18 September 2023 05:04PM
    Psi4 wall time for execution: 0:01:18.00


    -----------------------------------------------------------------------
          Psi4: An Open-Source Ab Initio Electronic Structure Package
                               Psi4 1.7 release

                         Git: Rev {HEAD} 6ce35a5 


    D. G. A. Smith, L. A. Burns, A. C. Simmonett, R. M. Parrish,
    M. C. Schieber, R. Galvelis, P. Kraus, H. Kruse, R. Di Remigio,
    A. Alenaizan, A. M. James, S. Lehtola, J. P. Misiewicz, M. Scheurer,
    R. A. Shaw, J. B. Schriber, Y. Xie, Z. L. Glick, D. A. Sirianni,
    J. S. O'Brien, J. M. Waldrop, A. Kumar, E. G. Hohenstein,
    B. P. Pritchard, B. R. Brooks, H. F. Schaefer III, A. Yu. Sokolov,
    K. Patkowski, A. E. DePrince III, U. Bozkaya, R. A. King,
    F. A. Evangelista, J. M. Turney, T. D. Crawford, C. D. Sherrill,
    J. Chem. Phys. 152(18) 184108 (2020). https://doi.org/10.1063/5.0006002

                            Additional Code Authors
    E. T. Seidl, C. L. Janssen, E. F. Valeev, M. L. Leininger,
    J. F. Gonthier, R. M. Richard, H. R. McAlexander, M. Saitow, X. Wang,
    P. Verma, M. H. Lechner, A. Jiang, S. Behnle, A. G. Heide,
    M. F. Herbst, and D. L. Poole

             Previous Authors, Complete List of Code Contributors,
                       and Citations for Specific Modules
    https://github.com/psi4/psi4/blob/master/codemeta.json
    https://github.com/psi4/psi4/graphs/contributors
    http://psicode.org/psi4manual/master/introduction.html#citing-psifour

    -----------------------------------------------------------------------


    Psi4 started on: Sunday, 17 September 2023 12:48PM

    Process ID: 258105
    Host:       d-19-15-2
    PSIDATADIR: /home/gridsan/kfisher/.conda/envs/p4env/share/psi4
    Memory:     18.6 GiB
    Threads:    1
    
  ==> Input QCSchema <==

--------------------------------------------------------------------------
{'driver': 'energy',
 'extras': {'psiapi': True, 'wfn_qcvars_only': True},
 'id': None,
 'keywords': {'D_CONVERGENCE': 1e-10, 'E_CONVERGENCE': 1e-10, 'function_kwargs': {'dft_functional': 'scan-d3zero2b'}},
 'model': {'basis': 'aug-cc-pvtz', 'method': 'scf'},
 'molecule': {'atom_labels': ['', '', '', '', '', '', '', '', ''],
              'atomic_numbers': [1, 1, 8, 1, 1, 8, 1, 1, 8],
              'fix_com': True,
              'fix_orientation': True,
              'fix_symmetry': 'c1',
              'fragment_charges': [0.0, 0.0, 0.0],
              'fragment_multiplicities': [1, 1, 1],
              'fragments': [[0, 1, 2], [3, 4, 5], [6, 7, 8]],
              'geometry': [4.930977709142548, -1.606773672138038, 7.46030592474229, 5.01148950961494,
                           -1.4926735771555784, 4.465934005373784, 4.8777890618756645, -0.45616051699273374,
                           6.078679722294323, 3.0506362848771844, -3.440070099948471, 1.2538314323096662,
                           5.819459281137527, -4.275967396886011, 0.569630085956173, 4.786983186204713,
                           -3.486704440019078, 1.885606295737195, 8.301460307480024, -5.224337451153072,
                           -3.4852545665465815, 5.827424382270025, -3.626800306782002, -3.5241317320502743,
                           6.650210286917607, -5.129781168321755, -2.7836441371595697],
              'mass_numbers': [1, 1, 16, 1, 1, 16, 1, 1, 16],
              'masses': [1.00782503223, 1.00782503223, 15.99491461957, 1.00782503223, 1.00782503223, 15.99491461957,
                         1.00782503223, 1.00782503223, 15.99491461957],
              'molecular_charge': 0.0,
              'molecular_multiplicity': 1,
              'name': 'H6O3',
              'provenance': {'creator': 'QCElemental',
                             'routine': 'qcelemental.molparse.from_string',
                             'version': 'v0.25.1'},
              'real': [True, True, True, False, False, False, True, True, True],
              'schema_name': 'qcschema_molecule',
              'schema_version': 2,
              'symbols': ['H', 'H', 'O', 'H', 'H', 'O', 'H', 'H', 'O'],
              'validated': True},
 'protocols': {'stdout': True},
 'provenance': {'creator': 'QCElemental', 'routine': 'qcelemental.models.results', 'version': 'v0.25.1'},
 'schema_name': 'qcschema_input',
 'schema_version': 1}
--------------------------------------------------------------------------

Scratch directory: /home/gridsan/kfisher/scratch/

*** tstart() called on d-19-15-2
*** at Mon Sep 18 17:04:16 2023

   => Loading Basis Set <=

    Name: AUG-CC-PVTZ
    Role: ORBITAL
    Keyword: BASIS
    atoms 1-2, 4-5, 7-8 entry H          line    40 file /home/gridsan/kfisher/.conda/envs/p4env/share/psi4/basis/aug-cc-pvtz.gbs 
    atoms 3, 6, 9       entry O          line   331 file /home/gridsan/kfisher/.conda/envs/p4env/share/psi4/basis/aug-cc-pvtz.gbs 

   => SCAN-D3: Empirical Dispersion <=

    Grimme's -D3 (zero-damping) Dispersion Correction
    Grimme S.; Antony J.; Ehrlich S.; Krieg H. (2010), J. Chem. Phys., 132: 154104
    Parametrisation from:    J.G. Brandenburg, J. E. Bates, J. Sun, J.P. Perdew, Phys. Rev. B 94, 115144, 2016

        s6 =       1.000000
        s8 =       0.000000
       sr6 =       1.324000
    alpha6 =      14.000000
       sr8 =       1.000000


         ---------------------------------------------------------
                                   SCF
               by Justin Turney, Rob Parrish, Andy Simmonett
                          and Daniel G. A. Smith
                              RKS Reference
                        1 Threads,  19073 MiB Core
         ---------------------------------------------------------

  ==> Geometry <==

    Molecular point group: c1
    Full point group: C1

    Geometry (in Bohr), charge = 0, multiplicity = 1:

       Center              X                  Y                   Z               Mass       
    ------------   -----------------  -----------------  -----------------  -----------------
         H            4.930977709143    -1.606773672138     7.460305924742     1.007825032230
         H            5.011489509615    -1.492673577156     4.465934005374     1.007825032230
         O            4.877789061876    -0.456160516993     6.078679722294    15.994914619570
      Gh(H)           3.050636284877    -3.440070099948     1.253831432310     1.007825032230
      Gh(H)           5.819459281138    -4.275967396886     0.569630085956     1.007825032230
      Gh(O)           4.786983186205    -3.486704440019     1.885606295737    15.994914619570
         H            8.301460307480    -5.224337451153    -3.485254566547     1.007825032230
         H            5.827424382270    -3.626800306782    -3.524131732050     1.007825032230
         O            6.650210286918    -5.129781168322    -2.783644137160    15.994914619570

  Running in c1 symmetry.

  Rotational constants: A =      0.06485  B =      0.02603  C =      0.01881 [cm^-1]
  Rotational constants: A =   1944.01521  B =    780.26895  C =    563.93030 [MHz]
  Nuclear repulsion =   27.908317355057648

  Charge       = 0
  Multiplicity = 1
  Electrons    = 20
  Nalpha       = 10
  Nbeta        = 10

  ==> Algorithm <==

  SCF Algorithm Type is DF.
  DIIS enabled.
  MOM disabled.
  Fractional occupation disabled.
  Guess Type is SAD.
  Energy threshold   = 1.00e-10
  Density threshold  = 1.00e-10
  Integral threshold = 1.00e-12

  ==> Primary Basis <==

  Basis Set: AUG-CC-PVTZ
    Blend: AUG-CC-PVTZ
    Number of shells: 96
    Number of basis functions: 276
    Number of Cartesian functions: 315
    Spherical Harmonics?: true
    Max angular momentum: 3

  ==> DFT Potential <==

   => Composite Functional: SCAN-D3ZERO2B <= 

    SCAN Meta-GGA XC Functional
(10.1103/PhysRevLett.115.036402)
    J. Sun, A. Ruzsinszky, J. P. Perdew  Phys. Rev. Lett. 115, 036402, 2015


    Deriv               =              1
    GGA                 =           TRUE
    Meta                =           TRUE

    Exchange Hybrid     =          FALSE
    MP2 Hybrid          =          FALSE

   => Exchange Functionals <=

    1.0000   XC_MGGA_X_SCAN

   => Correlation Functionals <=

    1.0000   XC_MGGA_C_SCAN

   => LibXC Density Thresholds  <==

    XC_MGGA_C_SCAN:  1.00E-15 
    XC_MGGA_X_SCAN:  1.00E-15 

   => Molecular Quadrature <=

    Radial Scheme          =       TREUTLER
    Pruning Scheme         =           NONE
    Nuclear Scheme         =       TREUTLER

    Blocking Scheme        =         OCTREE
    BS radius alpha        =              1
    Pruning alpha          =              1
    Radial Points          =             75
    Spherical Points       =            302
    Total Points           =         197647
    Total Blocks           =           1525
    Max Points             =            256
    Max Functions          =            258
    Weights Tolerance      =       1.00E-15

   => Loading Basis Set <=

    Name: (AUG-CC-PVTZ AUX)
    Role: JKFIT
    Keyword: DF_BASIS_SCF
    atoms 1-2, 4-5, 7-8 entry H          line    70 file /home/gridsan/kfisher/.conda/envs/p4env/share/psi4/basis/aug-cc-pvtz-jkfit.gbs 
    atoms 3, 6, 9       entry O          line   286 file /home/gridsan/kfisher/.conda/envs/p4env/share/psi4/basis/aug-cc-pvtz-jkfit.gbs 

  ==> Integral Setup <==

  DFHelper Memory: AOs need 0.327 GiB; user supplied 11.030 GiB. Using in-core AOs.

  ==> MemDFJK: Density-Fitted J/K Matrices <==

    J tasked:                   Yes
    K tasked:                    No
    wK tasked:                   No
    OpenMP threads:               1
    Memory [MiB]:             11294
    Algorithm:                 Core
    Schwarz Cutoff:           1E-12
    Mask sparsity (%):       7.5824
    Fitting Condition:        1E-10

   => Auxiliary Basis Set <=

  Basis Set: (AUG-CC-PVTZ AUX)
    Blend: AUG-CC-PVTZ-JKFIT
    Number of shells: 174
    Number of basis functions: 588
    Number of Cartesian functions: 723
    Spherical Harmonics?: true
    Max angular momentum: 4

  Cached 100.0% of DFT collocation blocks in 2.940 [GiB].

  Minimum eigenvalue in the overlap matrix is 1.5043280187E-04.
  Reciprocal condition number of the overlap matrix is 1.4490041527E-05.
    Using symmetric orthogonalization.

  ==> Pre-Iterations <==

  SCF Guess: Superposition of Atomic Densities via on-the-fly atomic UHF (no occupation information).

   -------------------------
    Irrep   Nso     Nmo    
   -------------------------
     A        276     276 
   -------------------------
    Total     276     276
   -------------------------

  ==> Iterations <==

                           Total Energy        Delta E     RMS |[F,P]|

   @DF-RKS iter SAD:  -152.10832046717329   -1.52108e+02   0.00000e+00 
   @DF-RKS iter   1:  -152.48375830143928   -3.75438e-01   3.74373e-03 DIIS/ADIIS
   @DF-RKS iter   2:  -151.30075314845098    1.18301e+00   7.12021e-03 DIIS/ADIIS
   @DF-RKS iter   3:  -152.85659021159617   -1.55584e+00   2.88090e-04 DIIS/ADIIS
   @DF-RKS iter   4:  -152.85948328029309   -2.89307e-03   7.34655e-05 DIIS
   @DF-RKS iter   5:  -152.85951352358296   -3.02433e-05   6.52855e-05 DIIS
   @DF-RKS iter   6:  -152.85962255148655   -1.09028e-04   8.15141e-06 DIIS
   @DF-RKS iter   7:  -152.85962429460423   -1.74312e-06   5.18455e-07 DIIS
   @DF-RKS iter   8:  -152.85962430099468   -6.39045e-09   1.36566e-07 DIIS
   @DF-RKS iter   9:  -152.85962430150019   -5.05509e-10   3.77687e-08 DIIS
   @DF-RKS iter  10:  -152.85962430154532   -4.51337e-11   1.90350e-09 DIIS
   @DF-RKS iter  11:  -152.85962430154567   -3.41061e-13   2.17758e-10 DIIS
   @DF-RKS iter  12:  -152.85962430154521    4.54747e-13   4.13380e-11 DIIS
  Energy and wave function converged.


  ==> Post-Iterations <==

   Electrons on quadrature grid:
      Ntotal   =   19.9999986601 ; deviation = -1.340e-06 

    Orbital Energies [Eh]
    ---------------------

    Doubly Occupied:                                                      

       1A    -18.973701     2A    -18.966455     3A     -0.982006  
       4A     -0.966806     5A     -0.506609     6A     -0.492304  
       7A     -0.358025     8A     -0.346950     9A     -0.284107  
      10A     -0.273432  

    Virtual:                                                              

      11A     -0.019419    12A     -0.002298    13A      0.029049  
      14A      0.041806    15A      0.047200    16A      0.056272  
      17A      0.078648    18A      0.084429    19A      0.109082  
      20A      0.113975    21A      0.122462    22A      0.127517  
      23A      0.136474    24A      0.151201    25A      0.153545  
      26A      0.166417    27A      0.181046    28A      0.192890  
      29A      0.196364    30A      0.212237    31A      0.222943  
      32A      0.230112    33A      0.236985    34A      0.250380  
      35A      0.283814    36A      0.286013    37A      0.306931  
      38A      0.314709    39A      0.321840    40A      0.336117  
      41A      0.345804    42A      0.348857    43A      0.353315  
      44A      0.356458    45A      0.365178    46A      0.372862  
      47A      0.380099    48A      0.410050    49A      0.415452  
      50A      0.448274    51A      0.477574    52A      0.485666  
      53A      0.513981    54A      0.540603    55A      0.588333  
      56A      0.603321    57A      0.624969    58A      0.625507  
      59A      0.634516    60A      0.646234    61A      0.661050  
      62A      0.674193    63A      0.711957    64A      0.731788  
      65A      0.761658    66A      0.764194    67A      0.774287  
      68A      0.784354    69A      0.794001    70A      0.800266  
      71A      0.819343    72A      0.835348    73A      0.838400  
      74A      0.848233    75A      0.859602    76A      0.867290  
      77A      0.872367    78A      0.881662    79A      0.898022  
      80A      0.917053    81A      0.925926    82A      0.942726  
      83A      0.947812    84A      0.955344    85A      0.966076  
      86A      0.985031    87A      0.994444    88A      0.999987  
      89A      1.037673    90A      1.048044    91A      1.060383  
      92A      1.090795    93A      1.104487    94A      1.113053  
      95A      1.119047    96A      1.140670    97A      1.164566  
      98A      1.183646    99A      1.197757   100A      1.212921  
     101A      1.220923   102A      1.274204   103A      1.299202  
     104A      1.309761   105A      1.339064   106A      1.368271  
     107A      1.386238   108A      1.405783   109A      1.433060  
     110A      1.469744   111A      1.495329   112A      1.519543  
     113A      1.533659   114A      1.548177   115A      1.600066  
     116A      1.613012   117A      1.641184   118A      1.662057  
     119A      1.696530   120A      1.709150   121A      1.726434  
     122A      1.766218   123A      1.785374   124A      1.838267  
     125A      1.844534   126A      1.892462   127A      1.921701  
     128A      1.940893   129A      1.968155   130A      2.027583  
     131A      2.057462   132A      2.085894   133A      2.097696  
     134A      2.160087   135A      2.176964   136A      2.238790  
     137A      2.253048   138A      2.267387   139A      2.307936  
     140A      2.314188   141A      2.334629   142A      2.362160  
     143A      2.369618   144A      2.379822   145A      2.472973  
     146A      2.488881   147A      2.512371   148A      2.517832  
     149A      2.560289   150A      2.575153   151A      2.608845  
     152A      2.610541   153A      2.632802   154A      2.642714  
     155A      2.708635   156A      2.723871   157A      2.759238  
     158A      2.781489   159A      2.807201   160A      2.856142  
     161A      2.888129   162A      2.925724   163A      2.983672  
     164A      3.053757   165A      3.068026   166A      3.165633  
     167A      3.205872   168A      3.363832   169A      3.426203  
     170A      3.481921   171A      3.523780   172A      3.568301  
     173A      3.635173   174A      3.684105   175A      3.729392  
     176A      3.847349   177A      3.895537   178A      3.913270  
     179A      3.948924   180A      3.978883   181A      4.039750  
     182A      4.110943   183A      4.113107   184A      4.170035  
     185A      4.219277   186A      4.248129   187A      4.256914  
     188A      4.290685   189A      4.324796   190A      4.334152  
     191A      4.369756   192A      4.387172   193A      4.433202  
     194A      4.459991   195A      4.466809   196A      4.484462  
     197A      4.508512   198A      4.540682   199A      4.572507  
     200A      4.700990   201A      4.721144   202A      4.778366  
     203A      4.850512   204A      4.909168   205A      4.954702  
     206A      5.018609   207A      5.036356   208A      5.064474  
     209A      5.115058   210A      5.140829   211A      5.153926  
     212A      5.196351   213A      5.211720   214A      5.262476  
     215A      5.315405   216A      5.342246   217A      5.417462  
     218A      5.451872   219A      5.512585   220A      5.571150  
     221A      5.618968   222A      5.688901   223A      5.749123  
     224A      5.884955   225A      5.916476   226A      5.990940  
     227A      6.045940   228A      6.299017   229A      6.326622  
     230A      6.451818   231A      6.497633   232A      6.549655  
     233A      6.584579   234A      6.629160   235A      6.708573  
     236A      6.819274   237A      6.876815   238A      6.932404  
     239A      6.959825   240A      6.973601   241A      6.977850  
     242A      7.006032   243A      7.070788   244A      7.084676  
     245A      7.115943   246A      7.129074   247A      7.159270  
     248A      7.182461   249A      7.385740   250A      7.434519  
     251A      7.460862   252A      7.649309   253A      7.671380  
     254A      7.681400   255A      7.733431   256A      8.021478  
     257A      8.091641   258A      8.177127   259A      8.349611  
     260A      8.440533   261A      8.490586   262A      8.544616  
     263A      8.929999   264A      9.243478   265A      9.911408  
     266A      9.953276   267A     10.157916   268A     10.511679  
     269A     11.222131   270A     11.714958   271A     12.324176  
     272A     13.580188   273A     14.029640   274A     15.486922  
     275A     15.585682   276A     66.387627  

    Final Occupation by Irrep:
              A 
    DOCC [    10 ]
    NA   [    10 ]
    NB   [    10 ]

  @DF-RKS Final Energy:  -152.85962430154521

   => Energetics <=

    Nuclear Repulsion Energy =             27.9083173550576475
    One-Electron Energy =                -265.2250184279877203
    Two-Electron Energy =                 103.0212974373919081
    DFT Exchange-Correlation Energy =     -18.5641671760070608
    Empirical Dispersion Energy =          -0.0000534900000000
    VV10 Nonlocal Energy =                  0.0000000000000000
    Total Energy =                       -152.8596243015452103

Computation Completed


Properties will be evaluated at   0.000000,   0.000000,   0.000000 [a0]

Properties computed using the SCF density matrix


 Multipole Moments:

 ------------------------------------------------------------------------------------
     Multipole            Electronic (a.u.)      Nuclear  (a.u.)        Total (a.u.)
[...]
    DFT Exchange-Correlation Energy =      -9.2796848526307549
    Empirical Dispersion Energy =          -0.0000001600000000
    VV10 Nonlocal Energy =                  0.0000000000000000
    Total Energy =                        -76.4305586981950853

Computation Completed


Properties will be evaluated at   0.000000,   0.000000,   0.000000 [a0]

Properties computed using the SCF density matrix


 Multipole Moments:

 ------------------------------------------------------------------------------------
     Multipole            Electronic (a.u.)      Nuclear  (a.u.)        Total (a.u.)
 ------------------------------------------------------------------------------------

 L = 1.  Multiply by 2.5417464519 to convert [e a0] to [Debye]
 Dipole X            :        -47.3931713           47.1659611           -0.2272103
 Dipole Y            :         35.3697808          -35.6096730           -0.2398922
 Dipole Z            :        -17.5373375           16.9083119           -0.6290256
 Magnitude           :                                                    0.7105251

 ------------------------------------------------------------------------------------

*** tstop() called on d-19-15-2 at Mon Sep 18 17:13:05 2023
Module time:
	user time   =      22.83 seconds =       0.38 minutes
	system time =       0.08 seconds =       0.00 minutes
	total time  =         23 seconds =       0.38 minutes
Total time:
	user time   =   60354.71 seconds =    1005.91 minutes
	system time =   30466.98 seconds =     507.78 minutes
	total time  =     102281 seconds =    1704.68 minutes

    Psi4 stopped on: Monday, 18 September 2023 05:13PM
    Psi4 wall time for execution: 0:00:23.15


    -----------------------------------------------------------------------
          Psi4: An Open-Source Ab Initio Electronic Structure Package
                               Psi4 1.7 release

                         Git: Rev {HEAD} 6ce35a5 


    D. G. A. Smith, L. A. Burns, A. C. Simmonett, R. M. Parrish,
    M. C. Schieber, R. Galvelis, P. Kraus, H. Kruse, R. Di Remigio,
    A. Alenaizan, A. M. James, S. Lehtola, J. P. Misiewicz, M. Scheurer,
    R. A. Shaw, J. B. Schriber, Y. Xie, Z. L. Glick, D. A. Sirianni,
    J. S. O'Brien, J. M. Waldrop, A. Kumar, E. G. Hohenstein,
    B. P. Pritchard, B. R. Brooks, H. F. Schaefer III, A. Yu. Sokolov,
    K. Patkowski, A. E. DePrince III, U. Bozkaya, R. A. King,
    F. A. Evangelista, J. M. Turney, T. D. Crawford, C. D. Sherrill,
    J. Chem. Phys. 152(18) 184108 (2020). https://doi.org/10.1063/5.0006002

                            Additional Code Authors
    E. T. Seidl, C. L. Janssen, E. F. Valeev, M. L. Leininger,
    J. F. Gonthier, R. M. Richard, H. R. McAlexander, M. Saitow, X. Wang,
    P. Verma, M. H. Lechner, A. Jiang, S. Behnle, A. G. Heide,
    M. F. Herbst, and D. L. Poole

             Previous Authors, Complete List of Code Contributors,
                       and Citations for Specific Modules
    https://github.com/psi4/psi4/blob/master/codemeta.json
    https://github.com/psi4/psi4/graphs/contributors
    http://psicode.org/psi4manual/master/introduction.html#citing-psifour

    -----------------------------------------------------------------------


    Psi4 started on: Sunday, 17 September 2023 12:48PM

    Process ID: 258105
    Host:       d-19-15-2
    PSIDATADIR: /home/gridsan/kfisher/.conda/envs/p4env/share/psi4
    Memory:     18.6 GiB
    Threads:    1
    
  ==> Input QCSchema <==

--------------------------------------------------------------------------
{'driver': 'energy',
 'extras': {'psiapi': True, 'wfn_qcvars_only': True},
 'id': None,
 'keywords': {'D_CONVERGENCE': 1e-10, 'E_CONVERGENCE': 1e-10, 'function_kwargs': {'dft_functional': 'scan-d3zero2b'}},
 'model': {'basis': 'aug-cc-pvtz', 'method': 'scf'},
 'molecule': {'atom_labels': ['', '', '', '', '', ''],
              'atomic_numbers': [1, 1, 8, 1, 1, 8],
              'fix_com': True,
              'fix_orientation': True,
              'fix_symmetry': 'c1',
              'fragment_charges': [0.0, 0.0],
              'fragment_multiplicities': [1, 1],
              'fragments': [[0, 1, 2], [3, 4, 5]],
              'geometry': [3.0506362848771844, -3.440070099948471, 1.2538314323096662, 5.819459281137527,
                           -4.275967396886011, 0.569630085956173, 4.786983186204713, -3.486704440019078,
                           1.885606295737195, 8.301460307480024, -5.224337451153072, -3.4852545665465815,
                           5.827424382270025, -3.626800306782002, -3.5241317320502743, 6.650210286917607,
                           -5.129781168321755, -2.7836441371595697],
              'mass_numbers': [1, 1, 16, 1, 1, 16],
              'masses': [1.00782503223, 1.00782503223, 15.99491461957, 1.00782503223, 1.00782503223, 15.99491461957],
              'molecular_charge': 0.0,
              'molecular_multiplicity': 1,
              'name': 'H4O2',
              'provenance': {'creator': 'QCElemental',
                             'routine': 'qcelemental.molparse.from_string',
                             'version': 'v0.25.1'},
              'real': [True, True, True, True, True, True],
              'schema_name': 'qcschema_molecule',
              'schema_version': 2,
              'symbols': ['H', 'H', 'O', 'H', 'H', 'O'],
              'validated': True},
 'protocols': {'stdout': True},
 'provenance': {'creator': 'QCElemental', 'routine': 'qcelemental.models.results', 'version': 'v0.25.1'},
 'schema_name': 'qcschema_input',
 'schema_version': 1}
--------------------------------------------------------------------------

Scratch directory: /home/gridsan/kfisher/scratch/

*** tstart() called on d-19-15-2
*** at Mon Sep 18 17:13:05 2023

   => Loading Basis Set <=

    Name: AUG-CC-PVTZ
    Role: ORBITAL
    Keyword: BASIS
    atoms 1-2, 4-5 entry H          line    40 file /home/gridsan/kfisher/.conda/envs/p4env/share/psi4/basis/aug-cc-pvtz.gbs 
    atoms 3, 6     entry O          line   331 file /home/gridsan/kfisher/.conda/envs/p4env/share/psi4/basis/aug-cc-pvtz.gbs 

   => SCAN-D3: Empirical Dispersion <=

    Grimme's -D3 (zero-damping) Dispersion Correction
    Grimme S.; Antony J.; Ehrlich S.; Krieg H. (2010), J. Chem. Phys., 132: 154104
    Parametrisation from:    J.G. Brandenburg, J. E. Bates, J. Sun, J.P. Perdew, Phys. Rev. B 94, 115144, 2016

        s6 =       1.000000
        s8 =       0.000000
       sr6 =       1.324000
    alpha6 =      14.000000
       sr8 =       1.000000


         ---------------------------------------------------------
                                   SCF
               by Justin Turney, Rob Parrish, Andy Simmonett
                          and Daniel G. A. Smith
                              RKS Reference
                        1 Threads,  19073 MiB Core
         ---------------------------------------------------------

  ==> Geometry <==

    Molecular point group: c1
    Full point group: C1

    Geometry (in Bohr), charge = 0, multiplicity = 1:

       Center              X                  Y                   Z               Mass       
    ------------   -----------------  -----------------  -----------------  -----------------
         H            3.050636284877    -3.440070099948     1.253831432310     1.007825032230
         H            5.819459281138    -4.275967396886     0.569630085956     1.007825032230
         O            4.786983186205    -3.486704440019     1.885606295737    15.994914619570
         H            8.301460307480    -5.224337451153    -3.485254566547     1.007825032230
         H            5.827424382270    -3.626800306782    -3.524131732050     1.007825032230
         O            6.650210286918    -5.129781168322    -2.783644137160    15.994914619570

  Running in c1 symmetry.

  Rotational constants: A =      0.34348  B =      0.03100  C =      0.02849 [cm^-1]
  Rotational constants: A =  10297.31579  B =    929.34592  C =    854.16229 [MHz]
  Nuclear repulsion =   37.249118605298023

  Charge       = 0
  Multiplicity = 1
  Electrons    = 20
  Nalpha       = 10
  Nbeta        = 10

  ==> Algorithm <==

  SCF Algorithm Type is DF.
  DIIS enabled.
  MOM disabled.
  Fractional occupation disabled.
  Guess Type is SAD.
  Energy threshold   = 1.00e-10
  Density threshold  = 1.00e-10
  Integral threshold = 1.00e-12

  ==> Primary Basis <==

  Basis Set: AUG-CC-PVTZ
    Blend: AUG-CC-PVTZ
    Number of shells: 64
    Number of basis functions: 184
    Number of Cartesian functions: 210
    Spherical Harmonics?: true
    Max angular momentum: 3

  ==> DFT Potential <==

   => Composite Functional: SCAN-D3ZERO2B <= 

    SCAN Meta-GGA XC Functional
(10.1103/PhysRevLett.115.036402)
    J. Sun, A. Ruzsinszky, J. P. Perdew  Phys. Rev. Lett. 115, 036402, 2015


    Deriv               =              1
    GGA                 =           TRUE
    Meta                =           TRUE

    Exchange Hybrid     =          FALSE
    MP2 Hybrid          =          FALSE

   => Exchange Functionals <=

    1.0000   XC_MGGA_X_SCAN

   => Correlation Functionals <=

    1.0000   XC_MGGA_C_SCAN

   => LibXC Density Thresholds  <==

    XC_MGGA_C_SCAN:  1.00E-15 
    XC_MGGA_X_SCAN:  1.00E-15 

   => Molecular Quadrature <=

    Radial Scheme          =       TREUTLER
    Pruning Scheme         =           NONE
    Nuclear Scheme         =       TREUTLER

    Blocking Scheme        =         OCTREE
    BS radius alpha        =              1
    Pruning alpha          =              1
    Radial Points          =             75
    Spherical Points       =            302
    Total Points           =         132402
    Total Blocks           =           1028
    Max Points             =            256
    Max Functions          =            184
    Weights Tolerance      =       1.00E-15

   => Loading Basis Set <=

    Name: (AUG-CC-PVTZ AUX)
    Role: JKFIT
    Keyword: DF_BASIS_SCF
    atoms 1-2, 4-5 entry H          line    70 file /home/gridsan/kfisher/.conda/envs/p4env/share/psi4/basis/aug-cc-pvtz-jkfit.gbs 
    atoms 3, 6     entry O          line   286 file /home/gridsan/kfisher/.conda/envs/p4env/share/psi4/basis/aug-cc-pvtz-jkfit.gbs 

  ==> Integral Setup <==

  DFHelper Memory: AOs need 0.107 GiB; user supplied 12.437 GiB. Using in-core AOs.

  ==> MemDFJK: Density-Fitted J/K Matrices <==

    J tasked:                   Yes
    K tasked:                    No
    wK tasked:                   No
    OpenMP threads:               1
    Memory [MiB]:             12735
    Algorithm:                 Core
    Schwarz Cutoff:           1E-12
    Mask sparsity (%):       0.5494
    Fitting Condition:        1E-10

   => Auxiliary Basis Set <=

  Basis Set: (AUG-CC-PVTZ AUX)
    Blend: AUG-CC-PVTZ-JKFIT
    Number of shells: 116
    Number of basis functions: 392
    Number of Cartesian functions: 482
    Spherical Harmonics?: true
    Max angular momentum: 4

  Cached 100.0% of DFT collocation blocks in 1.533 [GiB].

  Minimum eigenvalue in the overlap matrix is 2.4848471243E-04.
  Reciprocal condition number of the overlap matrix is 2.6332947490E-05.
    Using symmetric orthogonalization.

  ==> Pre-Iterations <==

  SCF Guess: Superposition of Atomic Densities via on-the-fly atomic UHF (no occupation information).

   -------------------------
    Irrep   Nso     Nmo    
   -------------------------
     A        184     184 
   -------------------------
    Total     184     184
   -------------------------

  ==> Iterations <==

                           Total Energy        Delta E     RMS |[F,P]|

   @DF-RKS iter SAD:  -152.17578633495691   -1.52176e+02   0.00000e+00 
   @DF-RKS iter   1:  -152.51422114517737   -3.38435e-01   5.47833e-03 DIIS/ADIIS
   @DF-RKS iter   2:  -151.41109387711020    1.10313e+00   1.02732e-02 DIIS/ADIIS
   @DF-RKS iter   3:  -152.86204802847465   -1.45095e+00   6.21248e-04 DIIS/ADIIS
   @DF-RKS iter   4:  -152.86208622138216   -3.81929e-05   7.00178e-04 DIIS/ADIIS
   @DF-RKS iter   5:  -152.86765845167102   -5.57223e-03   6.53886e-05 DIIS
   @DF-RKS iter   6:  -152.86770954069840   -5.10890e-05   1.67991e-05 DIIS
   @DF-RKS iter   7:  -152.86771319033437   -3.64964e-06   1.83863e-06 DIIS
   @DF-RKS iter   8:  -152.86771322930150   -3.89671e-08   4.75251e-07 DIIS
   @DF-RKS iter   9:  -152.86771323217346   -2.87196e-09   6.08915e-08 DIIS
   @DF-RKS iter  10:  -152.86771323222789   -5.44276e-11   9.03410e-09 DIIS
   @DF-RKS iter  11:  -152.86771323222894   -1.05160e-12   1.38799e-09 DIIS
   @DF-RKS iter  12:  -152.86771323222928   -3.41061e-13   1.64973e-10 DIIS
   @DF-RKS iter  13:  -152.86771323222928    0.00000e+00   3.46866e-11 DIIS
  Energy and wave function converged.


  ==> Post-Iterations <==

   Electrons on quadrature grid:
      Ntotal   =   19.9999964653 ; deviation = -3.535e-06 

    Orbital Energies [Eh]
    ---------------------

    Doubly Occupied:                                                      

       1A    -18.997580     2A    -18.940013     3A     -1.007742  
       4A     -0.945065     5A     -0.530985     6A     -0.473854  
       7A     -0.387628     8A     -0.329882     9A     -0.302134  
      10A     -0.252949  

    Virtual:                                                              

      11A     -0.026718    12A      0.016681    13A      0.030632  
      14A      0.051886    15A      0.077487    16A      0.087408  
      17A      0.104486    18A      0.114774    19A      0.133093  
      20A      0.143925    21A      0.156832    22A      0.168462  
      23A      0.176384    24A      0.190241    25A      0.203257  
      26A      0.228263    27A      0.234429    28A      0.251853  
      29A      0.278106    30A      0.289810    31A      0.322639  
      32A      0.334770    33A      0.344320    34A      0.351237  
      35A      0.362086    36A      0.367844    37A      0.376189  
      38A      0.465889    39A      0.470995    40A      0.493728  
      41A      0.541479    42A      0.561893    43A      0.592655  
      44A      0.619542    45A      0.625379    46A      0.641403  
      47A      0.654919    48A      0.672417    49A      0.728605  
      50A      0.757829    51A      0.762316    52A      0.790887  
      53A      0.827153    54A      0.837065    55A      0.842489  
      56A      0.847898    57A      0.859947    58A      0.880047  
      59A      0.890425    60A      0.927466    61A      0.936442  
      62A      0.954780    63A      0.967734    64A      0.991246  
      65A      1.033095    66A      1.060416    67A      1.068482  
      68A      1.087503    69A      1.098295    70A      1.126847  
      71A      1.143994    72A      1.163194    73A      1.175456  
      74A      1.192736    75A      1.200227    76A      1.299859  
      77A      1.344685    78A      1.381779    79A      1.428775  
      80A      1.446577    81A      1.474393    82A      1.530049  
      83A      1.555438    84A      1.630380    85A      1.654691  
      86A      1.673579    87A      1.713640    88A      1.818123  
      89A      1.840405    90A      1.890793    91A      1.970629  
      92A      2.076209    93A      2.119843    94A      2.144058  
      95A      2.171551    96A      2.184584    97A      2.209228  
      98A      2.236762    99A      2.269799   100A      2.284957  
     101A      2.334027   102A      2.338579   103A      2.377254  
     104A      2.446797   105A      2.484121   106A      2.517940  
     107A      2.553922   108A      2.564812   109A      2.602702  
     110A      2.623820   111A      2.657840   112A      2.711233  
     113A      2.763374   114A      2.796428   115A      2.823816  
     116A      3.003946   117A      3.497270   118A      3.543841  
     119A      3.607186   120A      3.824960   121A      3.851131  
     122A      3.871064   123A      3.936865   124A      3.979129  
     125A      4.078249   126A      4.112673   127A      4.129281  
     128A      4.154979   129A      4.205496   130A      4.270013  
     131A      4.272468   132A      4.307106   133A      4.335379  
     134A      4.341822   135A      4.346674   136A      4.420363  
     137A      4.441271   138A      4.481588   139A      4.526581  
     140A      4.592620   141A      4.667329   142A      4.770310  
     143A      4.980633   144A      4.999795   145A      5.019401  
     146A      5.064565   147A      5.116894   148A      5.135535  
     149A      5.159712   150A      5.170541   151A      5.276305  
     152A      5.384751   153A      5.576772   154A      5.590729  
     155A      5.933085   156A      6.000914   157A      6.261409  
     158A      6.305813   159A      6.477408   160A      6.524423  
     161A      6.617557   162A      6.635266   163A      6.846037  
     164A      6.891998   165A      6.898476   166A      6.925115  
     167A      6.939872   168A      6.975372   169A      7.002537  
     170A      7.047114   171A      7.071614   172A      7.106732  
     173A      7.137389   174A      7.171602   175A      7.293938  
     176A      7.507073   177A      7.617849   178A      7.647876  
     179A      7.722460   180A      7.741856   181A      8.472604  
     182A      8.510892   183A     15.171706   184A     15.677945  

    Final Occupation by Irrep:
              A 
    DOCC [    10 ]
    NA   [    10 ]
    NB   [    10 ]

  @DF-RKS Final Energy:  -152.86771323222928

   => Energetics <=

    Nuclear Repulsion Energy =             37.2491186052980225
    One-Electron Energy =                -283.8748025170710889
    Two-Electron Energy =                 112.3440893848031692
    DFT Exchange-Correlation Energy =     -18.5859481552593451
    Empirical Dispersion Energy =          -0.0001705500000000
    VV10 Nonlocal Energy =                  0.0000000000000000
    Total Energy =                       -152.8677132322292778

Computation Completed


Properties will be evaluated at   0.000000,   0.000000,   0.000000 [a0]

Properties computed using the SCF density matrix


 Multipole Moments:

 ------------------------------------------------------------------------------------
     Multipole            Electronic (a.u.)      Nuclear  (a.u.)        Total (a.u.)
 ------------------------------------------------------------------------------------

 L = 1.  Multiply by 2.5417464519 to convert [e a0] to [Debye]
 Dipole X            :       -114.3286688          114.4965280            0.1678593
 Dipole Y            :         85.6321050          -85.4990601            0.1330449
 Dipole Z            :         11.0523969          -12.3702275           -1.3178306
 Magnitude           :                                                    1.3351237

 ------------------------------------------------------------------------------------

*** tstop() called on d-19-15-2 at Mon Sep 18 17:13:34 2023
Module time:
	user time   =      26.75 seconds =       0.45 minutes
	system time =       0.13 seconds =       0.00 minutes
	total time  =         29 seconds =       0.48 minutes
Total time:
	user time   =   60381.52 seconds =    1006.36 minutes
	system time =   30467.11 seconds =     507.79 minutes
	total time  =     102310 seconds =    1705.17 minutes

    Psi4 stopped on: Monday, 18 September 2023 05:13PM
    Psi4 wall time for execution: 0:00:28.23


  //>>>>>>>>>>>>>>>>>>>>>>>>>>>>>>>>>>>//
  //          ManyBody Results         //
  //<<<<<<<<<<<<<<<<<<<<<<<<<<<<<<<<<<<//


   ==> N-Body: Counterpoise Corrected (CP) energies <==

        n-Body     Total Energy            Interaction Energy                          N-body Contribution to Interaction Energy
                   [Eh]                    [Eh]                  [kcal/mol]            [Eh]                  [kcal/mol]
             1  N/A                         0.000000000000        0.000000000000        0.000000000000        0.000000000000
  FULL/RTN   2  N/A                        -0.006750048204       -4.235719196303       -0.006750048204       -4.235719196303


