Scratch directory: /home/gridsan/kfisher/scratch/

  //>>>>>>>>>>>>>>>>>>>>>>>>>>>>>>>>>>>>>>>>//
  // ManyBody Setup: N-Body Levels [1, 2, 3]//
  //<<<<<<<<<<<<<<<<<<<<<<<<<<<<<<<<<<<<<<<<//

        Number of 1-body computations:     3
        Number of 2-body computations:     3
        Number of 3-body computations:     1

    -----------------------------------------------------------------------
          Psi4: An Open-Source Ab Initio Electronic Structure Package
                               Psi4 1.7 release

                         Git: Rev {HEAD} 6ce35a5 


    D. G. A. Smith, L. A. Burns, A. C. Simmonett, R. M. Parrish,
    M. C. Schieber, R. Galvelis, P. Kraus, H. Kruse, R. Di Remigio,
    A. Alenaizan, A. M. James, S. Lehtola, J. P. Misiewicz, M. Scheurer,
    R. A. Shaw, J. B. Schriber, Y. Xie, Z. L. Glick, D. A. Sirianni,
    J. S. O'Brien, J. M. Waldrop, A. Kumar, E. G. Hohenstein,
    B. P. Pritchard, B. R. Brooks, H. F. Schaefer III, A. Yu. Sokolov,
    K. Patkowski, A. E. DePrince III, U. Bozkaya, R. A. King,
    F. A. Evangelista, J. M. Turney, T. D. Crawford, C. D. Sherrill,
    J. Chem. Phys. 152(18) 184108 (2020). https://doi.org/10.1063/5.0006002

                            Additional Code Authors
    E. T. Seidl, C. L. Janssen, E. F. Valeev, M. L. Leininger,
    J. F. Gonthier, R. M. Richard, H. R. McAlexander, M. Saitow, X. Wang,
    P. Verma, M. H. Lechner, A. Jiang, S. Behnle, A. G. Heide,
    M. F. Herbst, and D. L. Poole

             Previous Authors, Complete List of Code Contributors,
                       and Citations for Specific Modules
    https://github.com/psi4/psi4/blob/master/codemeta.json
    https://github.com/psi4/psi4/graphs/contributors
    http://psicode.org/psi4manual/master/introduction.html#citing-psifour

    -----------------------------------------------------------------------


    Psi4 started on: Sunday, 17 September 2023 12:48PM

    Process ID: 258105
    Host:       d-19-15-2
    PSIDATADIR: /home/gridsan/kfisher/.conda/envs/p4env/share/psi4
    Memory:     18.6 GiB
    Threads:    1
    
  ==> Input QCSchema <==

--------------------------------------------------------------------------
{'driver': 'energy',
 'extras': {'psiapi': True, 'wfn_qcvars_only': True},
 'id': None,
 'keywords': {'D_CONVERGENCE': 1e-10, 'E_CONVERGENCE': 1e-10, 'function_kwargs': {}},
 'model': {'basis': 'aug-cc-pvtz', 'method': 'ccsd(t)'},
 'molecule': {'atom_labels': ['', '', '', '', '', '', '', '', ''],
              'atomic_numbers': [1, 1, 8, 1, 1, 8, 1, 1, 8],
              'fix_com': True,
              'fix_orientation': True,
              'fix_symmetry': 'c1',
              'fragment_charges': [0.0, 0.0, 0.0],
              'fragment_multiplicities': [1, 1, 1],
              'fragments': [[0, 1, 2], [3, 4, 5], [6, 7, 8]],
              'geometry': [4.930977709142548, -1.606773672138038, 7.46030592474229, 5.01148950961494,
                           -1.4926735771555784, 4.465934005373784, 4.8777890618756645, -0.45616051699273374,
                           6.078679722294323, 3.0506362848771844, -3.440070099948471, 1.2538314323096662,
                           5.819459281137527, -4.275967396886011, 0.569630085956173, 4.786983186204713,
                           -3.486704440019078, 1.885606295737195, 8.301460307480024, -5.224337451153072,
                           -3.4852545665465815, 5.827424382270025, -3.626800306782002, -3.5241317320502743,
                           6.650210286917607, -5.129781168321755, -2.7836441371595697],
              'mass_numbers': [1, 1, 16, 1, 1, 16, 1, 1, 16],
              'masses': [1.00782503223, 1.00782503223, 15.99491461957, 1.00782503223, 1.00782503223, 15.99491461957,
                         1.00782503223, 1.00782503223, 15.99491461957],
              'molecular_charge': 0.0,
              'molecular_multiplicity': 1,
              'name': 'H6O3',
              'provenance': {'creator': 'QCElemental',
                             'routine': 'qcelemental.molparse.from_string',
                             'version': 'v0.25.1'},
              'real': [True, True, True, False, False, False, False, False, False],
              'schema_name': 'qcschema_molecule',
              'schema_version': 2,
              'symbols': ['H', 'H', 'O', 'H', 'H', 'O', 'H', 'H', 'O'],
              'validated': True},
 'protocols': {'stdout': True},
 'provenance': {'creator': 'QCElemental', 'routine': 'qcelemental.models.results', 'version': 'v0.25.1'},
 'schema_name': 'qcschema_input',
 'schema_version': 1}
--------------------------------------------------------------------------

Scratch directory: /home/gridsan/kfisher/scratch/

*** tstart() called on d-19-15-2
*** at Mon Sep 18 17:13:34 2023

   => Loading Basis Set <=

    Name: AUG-CC-PVTZ
    Role: ORBITAL
    Keyword: BASIS
    atoms 1-2, 4-5, 7-8 entry H          line    40 file /home/gridsan/kfisher/.conda/envs/p4env/share/psi4/basis/aug-cc-pvtz.gbs 
    atoms 3, 6, 9       entry O          line   331 file /home/gridsan/kfisher/.conda/envs/p4env/share/psi4/basis/aug-cc-pvtz.gbs 


         ---------------------------------------------------------
                                   SCF
               by Justin Turney, Rob Parrish, Andy Simmonett
                          and Daniel G. A. Smith
                              RHF Reference
                        1 Threads,  19073 MiB Core
         ---------------------------------------------------------

  ==> Geometry <==

    Molecular point group: c1
    Full point group: C1

    Geometry (in Bohr), charge = 0, multiplicity = 1:

       Center              X                  Y                   Z               Mass       
    ------------   -----------------  -----------------  -----------------  -----------------
         H            4.930977709143    -1.606773672138     7.460305924742     1.007825032230
         H            5.011489509615    -1.492673577156     4.465934005374     1.007825032230
         O            4.877789061876    -0.456160516993     6.078679722294    15.994914619570
      Gh(H)           3.050636284877    -3.440070099948     1.253831432310     1.007825032230
      Gh(H)           5.819459281138    -4.275967396886     0.569630085956     1.007825032230
      Gh(O)           4.786983186205    -3.486704440019     1.885606295737    15.994914619570
      Gh(H)           8.301460307480    -5.224337451153    -3.485254566547     1.007825032230
      Gh(H)           5.827424382270    -3.626800306782    -3.524131732050     1.007825032230
      Gh(O)           6.650210286918    -5.129781168322    -2.783644137160    15.994914619570

  Running in c1 symmetry.

  Rotational constants: A =      0.06485  B =      0.02603  C =      0.01881 [cm^-1]
  Rotational constants: A =   1944.01521  B =    780.26895  C =    563.93030 [MHz]
  Nuclear repulsion =    8.943879682596720

  Charge       = 0
  Multiplicity = 1
  Electrons    = 10
  Nalpha       = 5
  Nbeta        = 5

  ==> Algorithm <==

  SCF Algorithm Type is PK.
  DIIS enabled.
  MOM disabled.
  Fractional occupation disabled.
  Guess Type is SAD.
  Energy threshold   = 1.00e-10
  Density threshold  = 1.00e-10
  Integral threshold = 1.00e-12

  ==> Primary Basis <==

  Basis Set: AUG-CC-PVTZ
    Blend: AUG-CC-PVTZ
    Number of shells: 96
    Number of basis functions: 276
    Number of Cartesian functions: 315
    Spherical Harmonics?: true
    Max angular momentum: 3

  ==> Integral Setup <==

  Using in-core PK algorithm.
   Calculation information:
      Number of atoms:                   9
      Number of AO shells:              96
      Number of primitives:            156
      Number of atomic orbitals:       315
      Number of basis functions:       276

      Integral cutoff                 1.00e-12
      Number of threads:                 1

  Performing in-core PK
  Using 1461265302 doubles for integral storage.
  We computed 9127164 shell quartets total.
  Whereas there are 10841496 unique shell quartets.

  ==> DiskJK: Disk-Based J/K Matrices <==

    J tasked:                  Yes
    K tasked:                  Yes
    wK tasked:                  No
    Memory [MiB]:            14305
    Schwarz Cutoff:          1E-12

    OpenMP threads:              1

  Minimum eigenvalue in the overlap matrix is 1.5043280187E-04.
  Reciprocal condition number of the overlap matrix is 1.4490041527E-05.
    Using symmetric orthogonalization.

  ==> Pre-Iterations <==

  SCF Guess: Superposition of Atomic Densities via on-the-fly atomic UHF (no occupation information).

   -------------------------
    Irrep   Nso     Nmo    
   -------------------------
     A        276     276 
   -------------------------
    Total     276     276
   -------------------------

  ==> Iterations <==

                        Total Energy        Delta E     RMS |[F,P]|

   @RHF iter SAD:   -75.44270247418405   -7.54427e+01   0.00000e+00 
   @RHF iter   1:   -75.96984543376919   -5.27143e-01   1.69464e-03 DIIS/ADIIS
   @RHF iter   2:   -76.02170331846368   -5.18579e-02   1.18622e-03 DIIS/ADIIS
   @RHF iter   3:   -76.05512503756128   -3.34217e-02   8.12404e-05 DIIS
   @RHF iter   4:   -76.05556396712618   -4.38930e-04   2.06622e-05 DIIS
   @RHF iter   5:   -76.05559546581213   -3.14987e-05   4.87060e-06 DIIS
   @RHF iter   6:   -76.05559823228607   -2.76647e-06   1.09449e-06 DIIS
   @RHF iter   7:   -76.05559838403576   -1.51750e-07   1.98649e-07 DIIS
   @RHF iter   8:   -76.05559838835464   -4.31888e-09   3.46960e-08 DIIS
   @RHF iter   9:   -76.05559838846526   -1.10617e-10   9.36734e-09 DIIS
   @RHF iter  10:   -76.05559838847265   -7.38964e-12   1.49707e-09 DIIS
   @RHF iter  11:   -76.05559838847253    1.13687e-13   3.22732e-10 DIIS
   @RHF iter  12:   -76.05559838847260   -7.10543e-14   6.76756e-11 DIIS
  Energy and wave function converged.


  ==> Post-Iterations <==

    Orbital Energies [Eh]
    ---------------------

    Doubly Occupied:                                                      

       1A    -20.570313     2A     -1.339027     3A     -0.708544  
       4A     -0.573952     5A     -0.507378  

    Virtual:                                                              

       6A      0.019177     7A      0.034946     8A      0.044257  
       9A      0.055946    10A      0.060605    11A      0.072090  
      12A      0.113213    13A      0.123018    14A      0.129113  
      15A      0.147193    16A      0.158663    17A      0.161137  
      18A      0.171647    19A      0.182645    20A      0.190066  
      21A      0.198620    22A      0.232722    23A      0.245029  
      24A      0.252969    25A      0.254924    26A      0.275954  
      27A      0.283441    28A      0.296294    29A      0.306335  
      30A      0.322622    31A      0.329566    32A      0.333288  
      33A      0.344019    34A      0.363618    35A      0.372600  
      36A      0.382642    37A      0.391407    38A      0.394134  
      39A      0.400512    40A      0.407499    41A      0.434718  
      42A      0.443165    43A      0.445814    44A      0.470996  
      45A      0.491334    46A      0.503091    47A      0.562687  
      48A      0.666033    49A      0.689120    50A      0.697491  
      51A      0.719234    52A      0.724989    53A      0.734360  
      54A      0.746506    55A      0.753448    56A      0.765627  
      57A      0.782118    58A      0.786582    59A      0.793183  
      60A      0.810568    61A      0.826256    62A      0.830483  
      63A      0.841923    64A      0.849089    65A      0.870008  
      66A      0.885218    67A      0.887725    68A      0.899714  
      69A      0.909308    70A      0.925593    71A      0.934912  
      72A      0.948966    73A      0.953827    74A      0.959358  
      75A      0.971485    76A      0.990350    77A      0.997805  
      78A      1.022018    79A      1.024967    80A      1.035643  
      81A      1.044071    82A      1.048117    83A      1.075878  
      84A      1.082614    85A      1.097544    86A      1.111486  
      87A      1.133176    88A      1.170634    89A      1.175259  
      90A      1.190357    91A      1.192528    92A      1.246837  
      93A      1.258886    94A      1.267859    95A      1.305571  
      96A      1.308820    97A      1.342560    98A      1.349842  
      99A      1.371854   100A      1.402632   101A      1.448455  
     102A      1.487118   103A      1.503725   104A      1.548129  
     105A      1.557237   106A      1.587507   107A      1.615169  
     108A      1.625601   109A      1.638602   110A      1.685108  
     111A      1.712787   112A      1.748590   113A      1.761782  
     114A      1.766228   115A      1.786261   116A      1.831879  
     117A      1.846929   118A      1.867211   119A      1.886834  
     120A      1.925617   121A      1.952376   122A      1.975867  
     123A      1.987512   124A      2.018710   125A      2.067298  
     126A      2.123133   127A      2.162196   128A      2.298693  
     129A      2.339271   130A      2.414035   131A      2.425784  
     132A      2.445976   133A      2.450736   134A      2.469711  
     135A      2.489470   136A      2.508245   137A      2.532043  
     138A      2.549743   139A      2.562794   140A      2.591358  
     141A      2.618678   142A      2.647487   143A      2.661318  
     144A      2.710377   145A      2.730599   146A      2.740080  
     147A      2.770229   148A      2.824479   149A      2.865163  
     150A      2.887536   151A      2.902009   152A      2.941169  
     153A      2.960763   154A      2.989277   155A      3.019291  
     156A      3.042337   157A      3.081132   158A      3.153858  
     159A      3.188264   160A      3.196293   161A      3.216732  
     162A      3.281528   163A      3.312051   164A      3.354930  
     165A      3.437098   166A      3.457842   167A      3.509165  
     168A      3.522373   169A      3.664401   170A      3.705586  
     171A      3.735290   172A      3.764216   173A      3.876849  
     174A      4.042387   175A      4.078438   176A      4.196172  
     177A      4.256531   178A      4.282325   179A      4.343270  
     180A      4.369868   181A      4.393579   182A      4.427828  
     183A      4.444311   184A      4.475390   185A      4.490130  
     186A      4.518610   187A      4.580150   188A      4.601443  
     189A      4.607930   190A      4.662402   191A      4.690984  
     192A      4.730429   193A      4.769034   194A      4.796063  
     195A      4.860023   196A      4.932881   197A      4.941973  
     198A      4.996173   199A      5.007554   200A      5.049000  
     201A      5.069975   202A      5.092092   203A      5.145359  
     204A      5.182737   205A      5.213844   206A      5.242533  
     207A      5.339895   208A      5.370519   209A      5.454551  
     210A      5.488582   211A      5.514934   212A      5.559410  
     213A      5.580481   214A      5.662171   215A      5.750966  
     216A      5.804057   217A      5.852738   218A      5.864482  
     219A      5.925586   220A      6.172547   221A      6.289721  
     222A      6.318147   223A      6.430895   224A      6.520187  
     225A      6.583348   226A      6.685228   227A      6.755711  
     228A      6.792595   229A      6.912744   230A      7.085589  
     231A      7.103442   232A      7.196431   233A      7.299223  
     234A      7.342223   235A      7.373789   236A      7.406122  
     237A      7.538708   238A      7.695448   239A      7.760118  
     240A      7.826772   241A      7.844161   242A      7.906937  
     243A      8.023191   244A      8.063128   245A      8.107515  
     246A      8.140753   247A      8.199004   248A      8.258809  
     249A      8.308305   250A      8.361295   251A      8.674680  
     252A      8.751823   253A      8.780660   254A      8.849209  
     255A      9.009206   256A      9.807457   257A      9.865966  
     258A      9.939020   259A      9.978912   260A     10.068250  
     261A     10.107881   262A     10.247521   263A     10.392956  
     264A     11.130768   265A     11.139393   266A     11.725241  
     267A     11.811003   268A     12.183963   269A     12.433556  
     270A     13.457076   271A     13.570285   272A     13.876585  
     273A     13.977222   274A     16.197127   275A     65.189809  
     276A     66.585331  

    Final Occupation by Irrep:
              A 
    DOCC [     5 ]
    NA   [     5 ]
    NB   [     5 ]

  @RHF Final Energy:   -76.05559838847260

   => Energetics <=

    Nuclear Repulsion Energy =              8.9438796825967195
    One-Electron Energy =                -122.6005281743900923
    Two-Electron Energy =                  37.6010501033207731
    Total Energy =                        -76.0555983884726032

Computation Completed


Properties will be evaluated at   0.000000,   0.000000,   0.000000 [a0]

Properties computed using the SCF density matrix


 Multipole Moments:

 ------------------------------------------------------------------------------------
     Multipole            Electronic (a.u.)      Nuclear  (a.u.)        Total (a.u.)
 ------------------------------------------------------------------------------------

 L = 1.  Multiply by 2.5417464519 to convert [e a0] to [Debye]
 Dipole X            :        -48.8996382           48.9647797            0.0651415
 Dipole Y            :          5.9842716           -6.7487314           -0.7644598
 Dipole Z            :        -60.6264885           60.5556777           -0.0708108
 Magnitude           :                                                    0.7704910

 ------------------------------------------------------------------------------------

*** tstop() called on d-19-15-2 at Mon Sep 18 17:15:04 2023
Module time:
	user time   =      75.18 seconds =       1.25 minutes
	system time =       3.03 seconds =       0.05 minutes
	total time  =         90 seconds =       1.50 minutes
Total time:
	user time   =   60456.87 seconds =    1007.61 minutes
	system time =   30470.16 seconds =     507.84 minutes
	total time  =     102400 seconds =    1706.67 minutes
 MINTS: Wrapper to libmints.
   by Justin Turney

   Calculation information:
      Number of threads:                 1
      Number of atoms:                   9
      Number of AO shells:              96
      Number of SO shells:              96
      Number of primitives:            156
      Number of atomic orbitals:       315
      Number of basis functions:       276

      Number of irreps:                  1
      Integral cutoff                 1.00e-12
      Number of functions per irrep: [ 276 ]

 OEINTS: Overlap, kinetic, potential, dipole, and quadrupole integrals
         stored in file 35.

      Computing two-electron integrals...done
      Computed 551110078 non-zero two-electron integrals.
        Stored in file 33.


*** tstart() called on d-19-15-2
*** at Mon Sep 18 17:16:03 2023


	Wfn Parameters:
	--------------------
	Wavefunction         = CCSD_T
	Number of irreps     = 1
	Number of MOs        = 276
	Number of active MOs = 276
	AO-Basis             = NONE
	Semicanonical        = false
	Reference            = RHF
	Print Level          = 1

	IRREP	# MOs	# FZDC	# DOCC	# SOCC	# VIRT	# FZVR
	-----	-----	------	------	------	------	------
	 A	   276	    0	    5	    0	    271	    0
	Transforming integrals...
	IWL integrals will be deleted.
	(OO|OO)...
	Presorting SO-basis two-electron integrals.
	Sorting File: SO Ints (nn|nn) nbuckets = 1
	Constructing frozen core operators
	Starting first half-transformation.
	Sorting half-transformed integrals.
	First half integral transformation complete.
	Starting second half-transformation.
	Two-electron integral transformation complete.
	(OO|OV)...
	Starting second half-transformation.
	Two-electron integral transformation complete.
	(OO|VV)...
	Starting second half-transformation.
	Two-electron integral transformation complete.
	(OV|OO)...
	Starting first half-transformation.
	Sorting half-transformed integrals.
	First half integral transformation complete.
	Starting second half-transformation.
	Two-electron integral transformation complete.
	(OV|OV)...
	Starting second half-transformation.
	Two-electron integral transformation complete.
	(OV|VV)...
	Starting second half-transformation.
	Two-electron integral transformation complete.
	(VV|OO)...
	Starting first half-transformation.
	Sorting half-transformed integrals.
	First half integral transformation complete.
	Starting second half-transformation.
	Two-electron integral transformation complete.
	(VV|OV)...
	Starting second half-transformation.
	Two-electron integral transformation complete.
	(VV|VV)...
	Starting second half-transformation.
	Two-electron integral transformation complete.
	Frozen core energy     =      0.00000000000000

	Size of irrep 0 of <ab|cd> integrals:   5393.580 (MW) /  43148.644 (MB)
	Total:                                  5393.580 (MW) /  43148.644 (MB)

	Size of irrep 0 of <ia|bc> integrals:     99.513 (MW) /    796.100 (MB)
	Total:                                    99.513 (MW) /    796.100 (MB)

	Size of irrep 0 of tijab amplitudes:       1.836 (MW) /     14.688 (MB)
	Total:                                     1.836 (MW) /     14.688 (MB)

	Nuclear Rep. energy          =      8.94387968259672
	SCF energy                   =    -76.05559838847260
	One-electron energy          =   -122.60052817590699
	Two-electron energy          =     37.60105010483812
	Reference energy             =    -76.05559838847215

*** tstop() called on d-19-15-2 at Mon Sep 18 17:31:15 2023
Module time:
	user time   =     509.68 seconds =       8.49 minutes
	system time =     289.20 seconds =       4.82 minutes
	total time  =        912 seconds =      15.20 minutes
Total time:
	user time   =   61009.44 seconds =    1016.82 minutes
	system time =   30772.91 seconds =     512.88 minutes
	total time  =     103371 seconds =    1722.85 minutes
            **************************
            *                        *
            *        CCENERGY        *
            *                        *
            **************************

    Nuclear Rep. energy (wfn)     =    8.943879682596720
    SCF energy          (wfn)     =  -76.055598388472603
    Reference energy    (file100) =  -76.055598388472148

    Input parameters:
    -----------------
    Wave function   =     CCSD_T
    Reference wfn   =     RHF
    Brueckner       =     No
    Memory (Mbytes) =     20000.0
    Maxiter         =     50
    R_Convergence   =     1.0e-07
    E_Convergence   =     1.0e-10
    Restart         =     Yes
    DIIS            =     Yes
    AO Basis        =     NONE
    ABCD            =     NEW
    Cache Level     =     2
    Cache Type      =     LOW
    Print Level     =     1
    Num. of threads =     1
    # Amps to Print =     10
    Print MP2 Amps? =     No
    Analyze T2 Amps =     No
    Print Pair Ener =     No
    Local CC        =     No
    SCS-MP2         =     False
    SCSN-MP2        =     False
    SCS-CCSD        =     False

MP2 correlation energy -0.2861214932254872
                Solving CC Amplitude Equations
                ------------------------------
  Iter             Energy              RMS        T1Diag      D1Diag    New D1Diag    D2Diag
  ----     ---------------------    ---------   ----------  ----------  ----------   --------
     0        -0.286121493225487    0.000e+00    0.000000    0.000000    0.000000    0.122052
     1        -0.283964552056584    3.664e-02    0.007846    0.017666    0.017666    0.124634
     2        -0.289222158632675    1.313e-02    0.007682    0.017429    0.017429    0.129774
     3        -0.290654779282488    5.177e-03    0.008935    0.020825    0.020825    0.132312
     4        -0.290517975481614    1.135e-03    0.009098    0.021300    0.021300    0.132581
     5        -0.290529144703191    4.316e-04    0.009186    0.021605    0.021605    0.132668
     6        -0.290537638831221    1.191e-04    0.009211    0.021694    0.021694    0.132673
     7        -0.290535967857237    4.411e-05    0.009216    0.021718    0.021718    0.132665
     8        -0.290535194469130    1.386e-05    0.009218    0.021724    0.021724    0.132663
     9        -0.290535353881486    5.232e-06    0.009219    0.021727    0.021727    0.132663
    10        -0.290535131918184    2.039e-06    0.009219    0.021727    0.021727    0.132663
    11        -0.290535120628923    7.519e-07    0.009219    0.021727    0.021727    0.132663
    12        -0.290535110028206    3.284e-07    0.009219    0.021727    0.021727    0.132663
    13        -0.290535104309041    1.227e-07    0.009219    0.021727    0.021727    0.132663
    14        -0.290535103466182    4.496e-08    0.009219    0.021727    0.021727    0.132663
    15        -0.290535103613396    1.530e-08    0.009219    0.021727    0.021727    0.132663
    16        -0.290535103556986    6.091e-09    0.009219    0.021727    0.021727    0.132663
    17        -0.290535103527202    2.171e-09    0.009219    0.021727    0.021727    0.132663

    Iterations converged.


    Largest TIA Amplitudes:
              4  12         0.0090667667
              4  10        -0.0089351669
              3   8         0.0065025127
              4  31         0.0044751003
              4  24        -0.0043669595
              4  11        -0.0043375677
              4  36        -0.0042166504
              4  33        -0.0041554929
              3  25         0.0040148000
              4  13        -0.0039268252

    Largest TIjAb Amplitudes:
      2   2  37  37        -0.0092461509
      4   4 122 122        -0.0078538852
      4   4  48  48        -0.0075166466
      2   2  42  42        -0.0072739643
      2   2  38  38        -0.0071105947
      3   3  61  61        -0.0068902985
      0   0 268 268        -0.0066124612
      2   2  41  41        -0.0065294095
      2   2  40  40        -0.0063631832
      2   2  37  76        -0.0062622734

    SCF energy       (wfn)                    =  -76.055598388472603
    Reference energy (file100)                =  -76.055598388472148

    Opposite-spin MP2 correlation energy      =   -0.217328171249749
    Same-spin MP2 correlation energy          =   -0.068793321975738
    Singles MP2 correlation energy            =   -0.000000000000000
    MP2 correlation energy                    =   -0.286121493225487
      * MP2 total energy                      =  -76.341719881697642

    Opposite-spin CCSD correlation energy     =   -0.229460518692734
    Same-spin CCSD correlation energy         =   -0.061074584834467
    Singles CCSD correlation energy           =    0.000000000000000
    CCSD correlation energy                   =   -0.290535103527202
      * CCSD total energy                     =  -76.346133491999353

            **************************
            *                        *
            *        CCTRIPLES       *
            *                        *
            **************************


    Wave function   =    CCSD_T
    Reference wfn   =      RHF

    Nuclear Rep. energy (wfn)                =    8.943879682596720
    SCF energy          (wfn)                =  -76.055598388472603
    Reference energy    (file100)            =  -76.055598388472148
    CCSD energy         (file100)            =   -0.290535103527202
    Total CCSD energy   (file100)            =  -76.346133491999353

    Number of ijk index combinations:               35
    Memory available in words               :      2500000000
    Approx. words needed per explicit thread:        79610044
    Number of threads for explicit ijk threading:    1

    MKL num_threads set to 1 for explicit threading.

    (T) energy                                =   -0.009055012441941
      * CCSD(T) total energy                  =  -76.355188504441287


    Psi4 stopped on: Monday, 18 September 2023 05:41PM
    Psi4 wall time for execution: 0:28:16.34


    -----------------------------------------------------------------------
          Psi4: An Open-Source Ab Initio Electronic Structure Package
                               Psi4 1.7 release

                         Git: Rev {HEAD} 6ce35a5 


    D. G. A. Smith, L. A. Burns, A. C. Simmonett, R. M. Parrish,
    M. C. Schieber, R. Galvelis, P. Kraus, H. Kruse, R. Di Remigio,
    A. Alenaizan, A. M. James, S. Lehtola, J. P. Misiewicz, M. Scheurer,
    R. A. Shaw, J. B. Schriber, Y. Xie, Z. L. Glick, D. A. Sirianni,
    J. S. O'Brien, J. M. Waldrop, A. Kumar, E. G. Hohenstein,
    B. P. Pritchard, B. R. Brooks, H. F. Schaefer III, A. Yu. Sokolov,
    K. Patkowski, A. E. DePrince III, U. Bozkaya, R. A. King,
    F. A. Evangelista, J. M. Turney, T. D. Crawford, C. D. Sherrill,
    J. Chem. Phys. 152(18) 184108 (2020). https://doi.org/10.1063/5.0006002

                            Additional Code Authors
    E. T. Seidl, C. L. Janssen, E. F. Valeev, M. L. Leininger,
    J. F. Gonthier, R. M. Richard, H. R. McAlexander, M. Saitow, X. Wang,
    P. Verma, M. H. Lechner, A. Jiang, S. Behnle, A. G. Heide,
    M. F. Herbst, and D. L. Poole

             Previous Authors, Complete List of Code Contributors,
                       and Citations for Specific Modules
    https://github.com/psi4/psi4/blob/master/codemeta.json
    https://github.com/psi4/psi4/graphs/contributors
    http://psicode.org/psi4manual/master/introduction.html#citing-psifour

    -----------------------------------------------------------------------


    Psi4 started on: Sunday, 17 September 2023 12:48PM

    Process ID: 258105
    Host:       d-19-15-2
    PSIDATADIR: /home/gridsan/kfisher/.conda/envs/p4env/share/psi4
    Memory:     18.6 GiB
    Threads:    1
    
  ==> Input QCSchema <==

--------------------------------------------------------------------------
{'driver': 'energy',
 'extras': {'psiapi': True, 'wfn_qcvars_only': True},
 'id': None,
 'keywords': {'D_CONVERGENCE': 1e-10, 'E_CONVERGENCE': 1e-10, 'function_kwargs': {}},
 'model': {'basis': 'aug-cc-pvtz', 'method': 'ccsd(t)'},
 'molecule': {'atom_labels': ['', '', '', '', '', '', '', '', ''],
              'atomic_numbers': [1, 1, 8, 1, 1, 8, 1, 1, 8],
              'fix_com': True,
              'fix_orientation': True,
              'fix_symmetry': 'c1',
              'fragment_charges': [0.0, 0.0, 0.0],
              'fragment_multiplicities': [1, 1, 1],
              'fragments': [[0, 1, 2], [3, 4, 5], [6, 7, 8]],
              'geometry': [4.930977709142548, -1.606773672138038, 7.46030592474229, 5.01148950961494,
                           -1.4926735771555784, 4.465934005373784, 4.8777890618756645, -0.45616051699273374,
                           6.078679722294323, 3.0506362848771844, -3.440070099948471, 1.2538314323096662,
                           5.819459281137527, -4.275967396886011, 0.569630085956173, 4.786983186204713,
                           -3.486704440019078, 1.885606295737195, 8.301460307480024, -5.224337451153072,
                           -3.4852545665465815, 5.827424382270025, -3.626800306782002, -3.5241317320502743,
                           6.650210286917607, -5.129781168321755, -2.7836441371595697],
              'mass_numbers': [1, 1, 16, 1, 1, 16, 1, 1, 16],
              'masses': [1.00782503223, 1.00782503223, 15.99491461957, 1.00782503223, 1.00782503223, 15.99491461957,
                         1.00782503223, 1.00782503223, 15.99491461957],
              'molecular_charge': 0.0,
              'molecular_multiplicity': 1,
              'name': 'H6O3',
              'provenance': {'creator': 'QCElemental',
                             'routine': 'qcelemental.molparse.from_string',
                             'version': 'v0.25.1'},
              'real': [False, False, False, True, True, True, False, False, False],
              'schema_name': 'qcschema_molecule',
              'schema_version': 2,
              'symbols': ['H', 'H', 'O', 'H', 'H', 'O', 'H', 'H', 'O'],
              'validated': True},
 'protocols': {'stdout': True},
 'provenance': {'creator': 'QCElemental', 'routine': 'qcelemental.models.results', 'version': 'v0.25.1'},
 'schema_name': 'qcschema_input',
 'schema_version': 1}
--------------------------------------------------------------------------

Scratch directory: /home/gridsan/kfisher/scratch/

*** tstart() called on d-19-15-2
*** at Mon Sep 18 17:41:50 2023

   => Loading Basis Set <=

    Name: AUG-CC-PVTZ
    Role: ORBITAL
    Keyword: BASIS
    atoms 1-2, 4-5, 7-8 entry H          line    40 file /home/gridsan/kfisher/.conda/envs/p4env/share/psi4/basis/aug-cc-pvtz.gbs 
    atoms 3, 6, 9       entry O          line   331 file /home/gridsan/kfisher/.conda/envs/p4env/share/psi4/basis/aug-cc-pvtz.gbs 


         ---------------------------------------------------------
                                   SCF
               by Justin Turney, Rob Parrish, Andy Simmonett
                          and Daniel G. A. Smith
                              RHF Reference
                        1 Threads,  19073 MiB Core
         ---------------------------------------------------------

  ==> Geometry <==

    Molecular point group: c1
    Full point group: C1

    Geometry (in Bohr), charge = 0, multiplicity = 1:

       Center              X                  Y                   Z               Mass       
    ------------   -----------------  -----------------  -----------------  -----------------
      Gh(H)           4.930977709143    -1.606773672138     7.460305924742     1.007825032230
      Gh(H)           5.011489509615    -1.492673577156     4.465934005374     1.007825032230
      Gh(O)           4.877789061876    -0.456160516993     6.078679722294    15.994914619570
         H            3.050636284877    -3.440070099948     1.253831432310     1.007825032230
         H            5.819459281138    -4.275967396886     0.569630085956     1.007825032230
         O            4.786983186205    -3.486704440019     1.885606295737    15.994914619570
      Gh(H)           8.301460307480    -5.224337451153    -3.485254566547     1.007825032230
      Gh(H)           5.827424382270    -3.626800306782    -3.524131732050     1.007825032230
      Gh(O)           6.650210286918    -5.129781168322    -2.783644137160    15.994914619570

  Running in c1 symmetry.

  Rotational constants: A =      0.06485  B =      0.02603  C =      0.01881 [cm^-1]
  Rotational constants: A =   1944.01521  B =    780.26895  C =    563.93030 [MHz]
  Nuclear repulsion =    8.990204587360747

  Charge       = 0
  Multiplicity = 1
  Electrons    = 10
  Nalpha       = 5
  Nbeta        = 5

  ==> Algorithm <==

  SCF Algorithm Type is PK.
  DIIS enabled.
  MOM disabled.
  Fractional occupation disabled.
  Guess Type is SAD.
  Energy threshold   = 1.00e-10
  Density threshold  = 1.00e-10
  Integral threshold = 1.00e-12

  ==> Primary Basis <==

  Basis Set: AUG-CC-PVTZ
    Blend: AUG-CC-PVTZ
    Number of shells: 96
    Number of basis functions: 276
    Number of Cartesian functions: 315
    Spherical Harmonics?: true
    Max angular momentum: 3

  ==> Integral Setup <==

  Using in-core PK algorithm.
   Calculation information:
      Number of atoms:                   9
      Number of AO shells:              96
      Number of primitives:            156
      Number of atomic orbitals:       315
      Number of basis functions:       276

      Integral cutoff                 1.00e-12
      Number of threads:                 1

  Performing in-core PK
  Using 1461265302 doubles for integral storage.
  We computed 9127164 shell quartets total.
  Whereas there are 10841496 unique shell quartets.

  ==> DiskJK: Disk-Based J/K Matrices <==

    J tasked:                  Yes
    K tasked:                  Yes
    wK tasked:                  No
    Memory [MiB]:            14305
    Schwarz Cutoff:          1E-12

    OpenMP threads:              1

  Minimum eigenvalue in the overlap matrix is 1.5043280187E-04.
  Reciprocal condition number of the overlap matrix is 1.4490041527E-05.
    Using symmetric orthogonalization.

  ==> Pre-Iterations <==

  SCF Guess: Superposition of Atomic Densities via on-the-fly atomic UHF (no occupation information).

   -------------------------
    Irrep   Nso     Nmo    
   -------------------------
     A        276     276 
   -------------------------
    Total     276     276
   -------------------------

  ==> Iterations <==

                        Total Energy        Delta E     RMS |[F,P]|

   @RHF iter SAD:   -75.45098013763354   -7.54510e+01   0.00000e+00 
   @RHF iter   1:   -75.97344750514075   -5.22467e-01   1.69185e-03 DIIS/ADIIS
   @RHF iter   2:   -76.02524234501216   -5.17948e-02   1.17537e-03 DIIS/ADIIS
   @RHF iter   3:   -76.05795682604995   -3.27145e-02   8.02338e-05 DIIS
   @RHF iter   4:   -76.05837675847768   -4.19932e-04   1.99850e-05 DIIS
   @RHF iter   5:   -76.05840545349308   -2.86950e-05   4.61132e-06 DIIS
   @RHF iter   6:   -76.05840787759583   -2.42410e-06   1.02360e-06 DIIS
   @RHF iter   7:   -76.05840800839007   -1.30794e-07   1.87410e-07 DIIS
   @RHF iter   8:   -76.05840801221574   -3.82566e-09   3.21004e-08 DIIS
   @RHF iter   9:   -76.05840801230710   -9.13616e-11   8.30218e-09 DIIS
   @RHF iter  10:   -76.05840801231274   -5.64171e-12   1.14946e-09 DIIS
   @RHF iter  11:   -76.05840801231284   -9.94760e-14   1.79027e-10 DIIS
   @RHF iter  12:   -76.05840801231254    2.98428e-13   3.13960e-11 DIIS
  Energy and wave function converged.


  ==> Post-Iterations <==

    Orbital Energies [Eh]
    ---------------------

    Doubly Occupied:                                                      

       1A    -20.569640     2A     -1.341150     3A     -0.710799  
       4A     -0.576077     5A     -0.507835  

    Virtual:                                                              

       6A      0.020882     7A      0.039485     8A      0.043932  
       9A      0.055111    10A      0.066825    11A      0.069044  
      12A      0.114880    13A      0.118309    14A      0.146347  
      15A      0.149753    16A      0.155186    17A      0.160392  
      18A      0.172191    19A      0.185363    20A      0.196870  
      21A      0.204346    22A      0.225499    23A      0.242202  
      24A      0.252967    25A      0.260730    26A      0.277654  
      27A      0.288203    28A      0.301098    29A      0.311866  
      30A      0.324699    31A      0.325620    32A      0.333727  
      33A      0.359998    34A      0.371607    35A      0.375401  
      36A      0.388323    37A      0.393978    38A      0.408257  
      39A      0.410298    40A      0.427067    41A      0.438362  
      42A      0.450893    43A      0.461448    44A      0.469858  
      45A      0.501026    46A      0.562447    47A      0.572852  
      48A      0.622139    49A      0.649278    50A      0.691970  
      51A      0.716224    52A      0.720580    53A      0.737040  
      54A      0.744320    55A      0.751121    56A      0.768143  
      57A      0.772976    58A      0.796794    59A      0.806439  
      60A      0.816741    61A      0.821181    62A      0.839226  
      63A      0.845382    64A      0.855473    65A      0.866129  
      66A      0.892977    67A      0.898980    68A      0.910823  
      69A      0.923990    70A      0.935422    71A      0.943030  
      72A      0.959228    73A      0.975147    74A      0.991349  
      75A      1.001415    76A      1.006042    77A      1.016977  
      78A      1.024570    79A      1.030356    80A      1.035897  
      81A      1.047268    82A      1.051969    83A      1.070918  
      84A      1.083982    85A      1.122090    86A      1.150189  
      87A      1.153706    88A      1.163397    89A      1.171517  
      90A      1.189504    91A      1.221677    92A      1.227365  
      93A      1.270434    94A      1.275482    95A      1.306702  
      96A      1.311931    97A      1.335946    98A      1.359431  
      99A      1.395093   100A      1.412255   101A      1.437643  
     102A      1.455449   103A      1.541057   104A      1.552675  
     105A      1.559529   106A      1.601531   107A      1.631606  
     108A      1.673917   109A      1.690164   110A      1.701458  
     111A      1.725112   112A      1.752382   113A      1.761990  
     114A      1.786016   115A      1.807367   116A      1.820706  
     117A      1.854209   118A      1.868544   119A      1.876103  
     120A      1.906827   121A      1.927600   122A      1.940091  
     123A      2.011096   124A      2.030443   125A      2.100736  
     126A      2.116303   127A      2.188055   128A      2.351458  
     129A      2.392654   130A      2.425214   131A      2.458047  
     132A      2.463824   133A      2.476740   134A      2.501105  
     135A      2.503041   136A      2.535903   137A      2.552180  
     138A      2.579960   139A      2.591103   140A      2.629705  
     141A      2.643082   142A      2.652758   143A      2.660092  
     144A      2.718263   145A      2.752551   146A      2.766949  
     147A      2.792597   148A      2.814610   149A      2.826297  
     150A      2.852672   151A      2.865082   152A      2.884879  
     153A      2.944123   154A      2.974724   155A      3.010335  
     156A      3.092466   157A      3.102572   158A      3.165829  
     159A      3.174415   160A      3.216574   161A      3.241793  
     162A      3.263347   163A      3.267496   164A      3.390146  
     165A      3.436092   166A      3.458002   167A      3.530582  
     168A      3.540698   169A      3.616756   170A      3.668177  
     171A      3.678717   172A      3.806717   173A      3.927260  
     174A      4.100564   175A      4.146076   176A      4.237254  
     177A      4.311929   178A      4.340814   179A      4.372541  
     180A      4.412912   181A      4.415196   182A      4.480553  
     183A      4.507805   184A      4.530350   185A      4.554175  
     186A      4.573725   187A      4.590568   188A      4.623506  
     189A      4.637057   190A      4.651847   191A      4.682807  
     192A      4.727356   193A      4.763720   194A      4.809266  
     195A      4.860584   196A      4.898037   197A      4.921952  
     198A      4.953268   199A      5.002801   200A      5.032259  
     201A      5.072540   202A      5.081257   203A      5.151535  
     204A      5.191756   205A      5.227825   206A      5.294391  
     207A      5.330980   208A      5.372209   209A      5.447727  
     210A      5.489435   211A      5.507039   212A      5.578566  
     213A      5.607702   214A      5.684945   215A      5.763814  
     216A      5.806492   217A      5.824431   218A      5.985112  
     219A      6.019380   220A      6.224837   221A      6.266839  
     222A      6.319601   223A      6.376419   224A      6.496969  
     225A      6.632092   226A      6.671185   227A      6.693838  
     228A      6.934538   229A      7.035705   230A      7.057149  
     231A      7.107100   232A      7.191377   233A      7.345632  
     234A      7.349634   235A      7.451650   236A      7.492148  
     237A      7.686032   238A      7.718589   239A      7.735799  
     240A      7.789247   241A      7.804629   242A      7.859622  
     243A      8.008000   244A      8.044991   245A      8.120541  
     246A      8.141010   247A      8.177886   248A      8.271743  
     249A      8.346582   250A      8.361295   251A      8.746218  
     252A      8.769855   253A      8.799319   254A      8.826153  
     255A      8.931834   256A      9.705831   257A      9.804012  
     258A      9.878744   259A      9.953774   260A     10.060676  
     261A     10.153868   262A     10.239247   263A     10.367840  
     264A     11.112264   265A     11.176553   266A     11.782056  
     267A     11.803222   268A     12.179763   269A     12.278574  
     270A     13.436200   271A     13.524831   272A     13.849717  
     273A     13.986757   274A     16.560924   275A     65.364715  
     276A     65.573812  

    Final Occupation by Irrep:
              A 
    DOCC [     5 ]
    NA   [     5 ]
    NB   [     5 ]

  @RHF Final Energy:   -76.05840801231254

   => Energetics <=

    Nuclear Repulsion Energy =              8.9902045873607470
    One-Electron Energy =                -122.6862234130966272
    Two-Electron Energy =                  37.6376108134233363
    Total Energy =                        -76.0584080123125403

Computation Completed


Properties will be evaluated at   0.000000,   0.000000,   0.000000 [a0]

Properties computed using the SCF density matrix


 Multipole Moments:

 ------------------------------------------------------------------------------------
     Multipole            Electronic (a.u.)      Nuclear  (a.u.)        Total (a.u.)
 ------------------------------------------------------------------------------------

 L = 1.  Multiply by 2.5417464519 to convert [e a0] to [Debye]
 Dipole X            :        -47.4121354           47.1659611           -0.2461744
 Dipole Y            :         35.3496938          -35.6096730           -0.2599792
 Dipole Z            :        -17.5895937           16.9083119           -0.6812818
 Magnitude           :                                                    0.7696337

 ------------------------------------------------------------------------------------

*** tstop() called on d-19-15-2 at Mon Sep 18 17:43:11 2023
Module time:
	user time   =      74.87 seconds =       1.25 minutes
	system time =       2.39 seconds =       0.04 minutes
	total time  =         81 seconds =       1.35 minutes
Total time:
	user time   =   61348.50 seconds =    1022.48 minutes
	system time =   31024.53 seconds =     517.08 minutes
	total time  =     104087 seconds =    1734.78 minutes
 MINTS: Wrapper to libmints.
   by Justin Turney

   Calculation information:
      Number of threads:                 1
      Number of atoms:                   9
      Number of AO shells:              96
      Number of SO shells:              96
      Number of primitives:            156
      Number of atomic orbitals:       315
      Number of basis functions:       276

      Number of irreps:                  1
      Integral cutoff                 1.00e-12
      Number of functions per irrep: [ 276 ]

 OEINTS: Overlap, kinetic, potential, dipole, and quadrupole integrals
         stored in file 35.

      Computing two-electron integrals...done
      Computed 551110078 non-zero two-electron integrals.
        Stored in file 33.


*** tstart() called on d-19-15-2
*** at Mon Sep 18 17:44:08 2023


	Wfn Parameters:
	--------------------
	Wavefunction         = CCSD_T
	Number of irreps     = 1
	Number of MOs        = 276
	Number of active MOs = 276
	AO-Basis             = NONE
	Semicanonical        = false
	Reference            = RHF
	Print Level          = 1

	IRREP	# MOs	# FZDC	# DOCC	# SOCC	# VIRT	# FZVR
	-----	-----	------	------	------	------	------
	 A	   276	    0	    5	    0	    271	    0
	Transforming integrals...
	IWL integrals will be deleted.
	(OO|OO)...
	Presorting SO-basis two-electron integrals.
	Sorting File: SO Ints (nn|nn) nbuckets = 1
	Constructing frozen core operators
	Starting first half-transformation.
	Sorting half-transformed integrals.
	First half integral transformation complete.
	Starting second half-transformation.
	Two-electron integral transformation complete.
	(OO|OV)...
	Starting second half-transformation.
	Two-electron integral transformation complete.
	(OO|VV)...
	Starting second half-transformation.
	Two-electron integral transformation complete.
	(OV|OO)...
	Starting first half-transformation.
	Sorting half-transformed integrals.
	First half integral transformation complete.
	Starting second half-transformation.
	Two-electron integral transformation complete.
	(OV|OV)...
	Starting second half-transformation.
	Two-electron integral transformation complete.
	(OV|VV)...
	Starting second half-transformation.
	Two-electron integral transformation complete.
	(VV|OO)...
	Starting first half-transformation.
	Sorting half-transformed integrals.
	First half integral transformation complete.
	Starting second half-transformation.
	Two-electron integral transformation complete.
	(VV|OV)...
	Starting second half-transformation.
	Two-electron integral transformation complete.
	(VV|VV)...
	Starting second half-transformation.
	Two-electron integral transformation complete.
	Frozen core energy     =      0.00000000000000

	Size of irrep 0 of <ab|cd> integrals:   5393.580 (MW) /  43148.644 (MB)
	Total:                                  5393.580 (MW) /  43148.644 (MB)

	Size of irrep 0 of <ia|bc> integrals:     99.513 (MW) /    796.100 (MB)
	Total:                                    99.513 (MW) /    796.100 (MB)

	Size of irrep 0 of tijab amplitudes:       1.836 (MW) /     14.688 (MB)
	Total:                                     1.836 (MW) /     14.688 (MB)

	Nuclear Rep. energy          =      8.99020458736075
	SCF energy                   =    -76.05840801231254
	One-electron energy          =   -122.68622342266120
	Two-electron energy          =     37.63761082298790
	Reference energy             =    -76.05840801231255

*** tstop() called on d-19-15-2 at Mon Sep 18 18:00:42 2023
Module time:
	user time   =     522.33 seconds =       8.71 minutes
	system time =     322.73 seconds =       5.38 minutes
	total time  =        994 seconds =      16.57 minutes
Total time:
	user time   =   61913.21 seconds =    1031.89 minutes
	system time =   31361.11 seconds =     522.69 minutes
	total time  =     105138 seconds =    1752.30 minutes
            **************************
            *                        *
            *        CCENERGY        *
            *                        *
            **************************

    Nuclear Rep. energy (wfn)     =    8.990204587360747
    SCF energy          (wfn)     =  -76.058408012312540
    Reference energy    (file100) =  -76.058408012312555

    Input parameters:
    -----------------
    Wave function   =     CCSD_T
    Reference wfn   =     RHF
    Brueckner       =     No
    Memory (Mbytes) =     20000.0
    Maxiter         =     50
    R_Convergence   =     1.0e-07
    E_Convergence   =     1.0e-10
    Restart         =     Yes
    DIIS            =     Yes
    AO Basis        =     NONE
    ABCD            =     NEW
    Cache Level     =     2
    Cache Type      =     LOW
    Print Level     =     1
    Num. of threads =     1
    # Amps to Print =     10
    Print MP2 Amps? =     No
    Analyze T2 Amps =     No
    Print Pair Ener =     No
    Local CC        =     No
    SCS-MP2         =     False
    SCSN-MP2        =     False
    SCS-CCSD        =     False

MP2 correlation energy -0.2861446648883674
                Solving CC Amplitude Equations
                ------------------------------
  Iter             Energy              RMS        T1Diag      D1Diag    New D1Diag    D2Diag
  ----     ---------------------    ---------   ----------  ----------  ----------   --------
     0        -0.286144664888367    0.000e+00    0.000000    0.000000    0.000000    0.119278
     1        -0.284067671316547    3.631e-02    0.007766    0.017497    0.017497    0.121878
     2        -0.289259343677646    1.295e-02    0.007595    0.017249    0.017249    0.126511
     3        -0.290666392940097    5.091e-03    0.008818    0.020573    0.020573    0.128773
     4        -0.290536249953598    1.133e-03    0.008981    0.021050    0.021050    0.128967
     5        -0.290544749275948    4.327e-04    0.009069    0.021353    0.021353    0.129022
     6        -0.290553670010863    1.219e-04    0.009094    0.021446    0.021446    0.129021
     7        -0.290552133502037    4.387e-05    0.009100    0.021471    0.021471    0.129011
     8        -0.290551307182727    1.360e-05    0.009101    0.021478    0.021478    0.129009
     9        -0.290551429145020    4.984e-06    0.009102    0.021480    0.021480    0.129009
    10        -0.290551216569775    1.830e-06    0.009102    0.021481    0.021481    0.129009
    11        -0.290551202210418    6.402e-07    0.009102    0.021481    0.021481    0.129009
    12        -0.290551191548429    2.752e-07    0.009102    0.021481    0.021481    0.129009
    13        -0.290551186472554    9.597e-08    0.009102    0.021481    0.021481    0.129009
    14        -0.290551186235338    3.377e-08    0.009102    0.021481    0.021481    0.129009
    15        -0.290551186477241    1.192e-08    0.009102    0.021481    0.021481    0.129009
    16        -0.290551186435208    4.271e-09    0.009102    0.021481    0.021481    0.129009
    17        -0.290551186426319    1.559e-09    0.009102    0.021481    0.021481    0.129009

    Iterations converged.


    Largest TIA Amplitudes:
              4  13         0.0120429112
              4  36        -0.0080934156
              4   3        -0.0059665945
              4  10         0.0044983847
              4   7         0.0043371791
              4  38         0.0040461171
              3  10         0.0040097547
              3  25        -0.0039663544
              4   9         0.0039537190
              3  32        -0.0035683631

    Largest TIjAb Amplitudes:
      2   2  37  37        -0.0142116460
      2   2  42  42        -0.0133379879
      4   4  36  36        -0.0093022424
      4   4  13  13        -0.0075476621
      4   4  13  36         0.0073760039
      4   4  36  13         0.0073760039
      3   3  42  42        -0.0073439516
      2   2  37  43         0.0069268150
      2   2  43  37         0.0069268150
      2   2  14  37         0.0068489567

    SCF energy       (wfn)                    =  -76.058408012312540
    Reference energy (file100)                =  -76.058408012312555

    Opposite-spin MP2 correlation energy      =   -0.217398336826574
    Same-spin MP2 correlation energy          =   -0.068746328061794
    Singles MP2 correlation energy            =   -0.000000000000000
    MP2 correlation energy                    =   -0.286144664888367
      * MP2 total energy                      =  -76.344552677200923

    Opposite-spin CCSD correlation energy     =   -0.229444921426460
    Same-spin CCSD correlation energy         =   -0.061106264999858
    Singles CCSD correlation energy           =    0.000000000000000
    CCSD correlation energy                   =   -0.290551186426319
      * CCSD total energy                     =  -76.348959198738868

            **************************
            *                        *
            *        CCTRIPLES       *
            *                        *
            **************************


    Wave function   =    CCSD_T
    Reference wfn   =      RHF

    Nuclear Rep. energy (wfn)                =    8.990204587360747
    SCF energy          (wfn)                =  -76.058408012312540
    Reference energy    (file100)            =  -76.058408012312555
    CCSD energy         (file100)            =   -0.290551186426319
    Total CCSD energy   (file100)            =  -76.348959198738868

    Number of ijk index combinations:               35
    Memory available in words               :      2500000000
    Approx. words needed per explicit thread:        79610044
    Number of threads for explicit ijk threading:    1

    MKL num_threads set to 1 for explicit threading.

    (T) energy                                =   -0.009016022724968
      * CCSD(T) total energy                  =  -76.357975221463846


    Psi4 stopped on: Monday, 18 September 2023 06:14PM
    Psi4 wall time for execution: 0:32:12.13


    -----------------------------------------------------------------------
          Psi4: An Open-Source Ab Initio Electronic Structure Package
                               Psi4 1.7 release

                         Git: Rev {HEAD} 6ce35a5 


    D. G. A. Smith, L. A. Burns, A. C. Simmonett, R. M. Parrish,
    M. C. Schieber, R. Galvelis, P. Kraus, H. Kruse, R. Di Remigio,
    A. Alenaizan, A. M. James, S. Lehtola, J. P. Misiewicz, M. Scheurer,
    R. A. Shaw, J. B. Schriber, Y. Xie, Z. L. Glick, D. A. Sirianni,
    J. S. O'Brien, J. M. Waldrop, A. Kumar, E. G. Hohenstein,
    B. P. Pritchard, B. R. Brooks, H. F. Schaefer III, A. Yu. Sokolov,
    K. Patkowski, A. E. DePrince III, U. Bozkaya, R. A. King,
    F. A. Evangelista, J. M. Turney, T. D. Crawford, C. D. Sherrill,
    J. Chem. Phys. 152(18) 184108 (2020). https://doi.org/10.1063/5.0006002

                            Additional Code Authors
    E. T. Seidl, C. L. Janssen, E. F. Valeev, M. L. Leininger,
    J. F. Gonthier, R. M. Richard, H. R. McAlexander, M. Saitow, X. Wang,
    P. Verma, M. H. Lechner, A. Jiang, S. Behnle, A. G. Heide,
    M. F. Herbst, and D. L. Poole

             Previous Authors, Complete List of Code Contributors,
                       and Citations for Specific Modules
    https://github.com/psi4/psi4/blob/master/codemeta.json
    https://github.com/psi4/psi4/graphs/contributors
    http://psicode.org/psi4manual/master/introduction.html#citing-psifour

    -----------------------------------------------------------------------


    Psi4 started on: Sunday, 17 September 2023 12:48PM

    Process ID: 258105
    Host:       d-19-15-2
    PSIDATADIR: /home/gridsan/kfisher/.conda/envs/p4env/share/psi4
    Memory:     18.6 GiB
    Threads:    1
    
  ==> Input QCSchema <==

--------------------------------------------------------------------------
{'driver': 'energy',
 'extras': {'psiapi': True, 'wfn_qcvars_only': True},
 'id': None,
 'keywords': {'D_CONVERGENCE': 1e-10, 'E_CONVERGENCE': 1e-10, 'function_kwargs': {}},
 'model': {'basis': 'aug-cc-pvtz', 'method': 'ccsd(t)'},
 'molecule': {'atom_labels': ['', '', '', '', '', '', '', '', ''],
              'atomic_numbers': [1, 1, 8, 1, 1, 8, 1, 1, 8],
              'fix_com': True,
              'fix_orientation': True,
              'fix_symmetry': 'c1',
              'fragment_charges': [0.0, 0.0, 0.0],
              'fragment_multiplicities': [1, 1, 1],
              'fragments': [[0, 1, 2], [3, 4, 5], [6, 7, 8]],
              'geometry': [4.930977709142548, -1.606773672138038, 7.46030592474229, 5.01148950961494,
                           -1.4926735771555784, 4.465934005373784, 4.8777890618756645, -0.45616051699273374,
                           6.078679722294323, 3.0506362848771844, -3.440070099948471, 1.2538314323096662,
                           5.819459281137527, -4.275967396886011, 0.569630085956173, 4.786983186204713,
                           -3.486704440019078, 1.885606295737195, 8.301460307480024, -5.224337451153072,
                           -3.4852545665465815, 5.827424382270025, -3.626800306782002, -3.5241317320502743,
                           6.650210286917607, -5.129781168321755, -2.7836441371595697],
              'mass_numbers': [1, 1, 16, 1, 1, 16, 1, 1, 16],
              'masses': [1.00782503223, 1.00782503223, 15.99491461957, 1.00782503223, 1.00782503223, 15.99491461957,
                         1.00782503223, 1.00782503223, 15.99491461957],
              'molecular_charge': 0.0,
              'molecular_multiplicity': 1,
              'name': 'H6O3',
              'provenance': {'creator': 'QCElemental',
                             'routine': 'qcelemental.molparse.from_string',
                             'version': 'v0.25.1'},
              'real': [False, False, False, True, True, True, True, True, True],
              'schema_name': 'qcschema_molecule',
              'schema_version': 2,
              'symbols': ['H', 'H', 'O', 'H', 'H', 'O', 'H', 'H', 'O'],
              'validated': True},
 'protocols': {'stdout': True},
 'provenance': {'creator': 'QCElemental', 'routine': 'qcelemental.models.results', 'version': 'v0.25.1'},
 'schema_name': 'qcschema_input',
 'schema_version': 1}
--------------------------------------------------------------------------

Scratch directory: /home/gridsan/kfisher/scratch/

*** tstart() called on d-19-15-2
*** at Mon Sep 18 18:14:03 2023

   => Loading Basis Set <=

    Name: AUG-CC-PVTZ
    Role: ORBITAL
    Keyword: BASIS
    atoms 1-2, 4-5, 7-8 entry H          line    40 file /home/gridsan/kfisher/.conda/envs/p4env/share/psi4/basis/aug-cc-pvtz.gbs 
    atoms 3, 6, 9       entry O          line   331 file /home/gridsan/kfisher/.conda/envs/p4env/share/psi4/basis/aug-cc-pvtz.gbs 


         ---------------------------------------------------------
                                   SCF
               by Justin Turney, Rob Parrish, Andy Simmonett
                          and Daniel G. A. Smith
                              RHF Reference
                        1 Threads,  19073 MiB Core
         ---------------------------------------------------------

  ==> Geometry <==

    Molecular point group: c1
    Full point group: C1

    Geometry (in Bohr), charge = 0, multiplicity = 1:

       Center              X                  Y                   Z               Mass       
    ------------   -----------------  -----------------  -----------------  -----------------
      Gh(H)           4.930977709143    -1.606773672138     7.460305924742     1.007825032230
      Gh(H)           5.011489509615    -1.492673577156     4.465934005374     1.007825032230
      Gh(O)           4.877789061876    -0.456160516993     6.078679722294    15.994914619570
         H            3.050636284877    -3.440070099948     1.253831432310     1.007825032230
         H            5.819459281138    -4.275967396886     0.569630085956     1.007825032230
         O            4.786983186205    -3.486704440019     1.885606295737    15.994914619570
         H            8.301460307480    -5.224337451153    -3.485254566547     1.007825032230
         H            5.827424382270    -3.626800306782    -3.524131732050     1.007825032230
         O            6.650210286918    -5.129781168322    -2.783644137160    15.994914619570

  Running in c1 symmetry.

  Rotational constants: A =      0.06485  B =      0.02603  C =      0.01881 [cm^-1]
  Rotational constants: A =   1944.01521  B =    780.26895  C =    563.93030 [MHz]
  Nuclear repulsion =   37.249118605298023

  Charge       = 0
  Multiplicity = 1
  Electrons    = 20
  Nalpha       = 10
  Nbeta        = 10

  ==> Algorithm <==

  SCF Algorithm Type is PK.
  DIIS enabled.
  MOM disabled.
  Fractional occupation disabled.
  Guess Type is SAD.
  Energy threshold   = 1.00e-10
  Density threshold  = 1.00e-10
  Integral threshold = 1.00e-12

  ==> Primary Basis <==

  Basis Set: AUG-CC-PVTZ
    Blend: AUG-CC-PVTZ
    Number of shells: 96
    Number of basis functions: 276
    Number of Cartesian functions: 315
    Spherical Harmonics?: true
    Max angular momentum: 3

  ==> Integral Setup <==

  Using in-core PK algorithm.
   Calculation information:
      Number of atoms:                   9
      Number of AO shells:              96
      Number of primitives:            156
      Number of atomic orbitals:       315
      Number of basis functions:       276

      Integral cutoff                 1.00e-12
      Number of threads:                 1

  Performing in-core PK
  Using 1461265302 doubles for integral storage.
  We computed 9127164 shell quartets total.
  Whereas there are 10841496 unique shell quartets.

  ==> DiskJK: Disk-Based J/K Matrices <==

    J tasked:                  Yes
    K tasked:                  Yes
    wK tasked:                  No
    Memory [MiB]:            14305
    Schwarz Cutoff:          1E-12

    OpenMP threads:              1

  Minimum eigenvalue in the overlap matrix is 1.5043280187E-04.
  Reciprocal condition number of the overlap matrix is 1.4490041527E-05.
    Using symmetric orthogonalization.

  ==> Pre-Iterations <==

  SCF Guess: Superposition of Atomic Densities via on-the-fly atomic UHF (no occupation information).

   -------------------------
    Irrep   Nso     Nmo    
   -------------------------
     A        276     276 
   -------------------------
    Total     276     276
   -------------------------

  ==> Iterations <==

                        Total Energy        Delta E     RMS |[F,P]|

   @RHF iter SAD:  -151.02355245447961   -1.51024e+02   0.00000e+00 
   @RHF iter   1:  -151.96327240831044   -9.39720e-01   2.30524e-03 DIIS/ADIIS
   @RHF iter   2:  -152.06496682767454   -1.01694e-01   1.52486e-03 DIIS/ADIIS
   @RHF iter   3:  -152.11919679249741   -5.42300e-02   1.15626e-04 DIIS/ADIIS
   @RHF iter   4:  -152.12008529803347   -8.88506e-04   2.87249e-05 DIIS
   @RHF iter   5:  -152.12014099842230   -5.57004e-05   9.98313e-06 DIIS
   @RHF iter   6:  -152.12014697750175   -5.97908e-06   4.20684e-06 DIIS
   @RHF iter   7:  -152.12014794684509   -9.69343e-07   8.27183e-07 DIIS
   @RHF iter   8:  -152.12014802295087   -7.61058e-08   1.49909e-07 DIIS
   @RHF iter   9:  -152.12014802521921   -2.26834e-09   2.78515e-08 DIIS
   @RHF iter  10:  -152.12014802528702   -6.78142e-11   7.76126e-09 DIIS
   @RHF iter  11:  -152.12014802529225   -5.22959e-12   1.60865e-09 DIIS
   @RHF iter  12:  -152.12014802529208    1.70530e-13   3.11563e-10 DIIS
   @RHF iter  13:  -152.12014802529191    1.70530e-13   1.36673e-10 DIIS
   @RHF iter  14:  -152.12014802529282   -9.09495e-13   3.07136e-11 DIIS
  Energy and wave function converged.


  ==> Post-Iterations <==

    Orbital Energies [Eh]
    ---------------------

    Doubly Occupied:                                                      

       1A    -20.595516     2A    -20.537425     3A     -1.377852  
       4A     -1.312977     5A     -0.747132     6A     -0.690053  
       7A     -0.611933     8A     -0.557937     9A     -0.525964  
      10A     -0.479208  

    Virtual:                                                              

      11A      0.020261    12A      0.039843    13A      0.044885  
      14A      0.058458    15A      0.069061    16A      0.072772  
      17A      0.126927    18A      0.141166    19A      0.153483  
      20A      0.155149    21A      0.160954    22A      0.167786  
      23A      0.182469    24A      0.193285    25A      0.203257  
      26A      0.217814    27A      0.222523    28A      0.232438  
      29A      0.237025    30A      0.258720    31A      0.277158  
      32A      0.288663    33A      0.299976    34A      0.317892  
      35A      0.327538    36A      0.340085    37A      0.372457  
      38A      0.373117    39A      0.380704    40A      0.385874  
      41A      0.397902    42A      0.411881    43A      0.425672  
      44A      0.437902    45A      0.444512    46A      0.452080  
      47A      0.459860    48A      0.466256    49A      0.496558  
      50A      0.502133    51A      0.558474    52A      0.584926  
      53A      0.603201    54A      0.615126    55A      0.669229  
      56A      0.677946    57A      0.719243    58A      0.741030  
      59A      0.749245    60A      0.755079    61A      0.762279  
      62A      0.768394    63A      0.787187    64A      0.803576  
      65A      0.817203    66A      0.832587    67A      0.835641  
      68A      0.852153    69A      0.871709    70A      0.881543  
      71A      0.898346    72A      0.912188    73A      0.916325  
      74A      0.924189    75A      0.942462    76A      0.954474  
      77A      0.969027    78A      0.980425    79A      0.996157  
      80A      1.007537    81A      1.010525    82A      1.026504  
      83A      1.031064    84A      1.036477    85A      1.050095  
      86A      1.051563    87A      1.070315    88A      1.088218  
      89A      1.100479    90A      1.138261    91A      1.141159  
      92A      1.156489    93A      1.160448    94A      1.176044  
      95A      1.178790    96A      1.217020    97A      1.250776  
      98A      1.256784    99A      1.279644   100A      1.298032  
     101A      1.315175   102A      1.340595   103A      1.355004  
     104A      1.379696   105A      1.412196   106A      1.428552  
     107A      1.482335   108A      1.518192   109A      1.531640  
     110A      1.575013   111A      1.604536   112A      1.616467  
     113A      1.651016   114A      1.685070   115A      1.713918  
     116A      1.726282   117A      1.734276   118A      1.771315  
     119A      1.784074   120A      1.807883   121A      1.830197  
     122A      1.842633   123A      1.873854   124A      1.902701  
     125A      1.922098   126A      1.940792   127A      2.005412  
     128A      2.036749   129A      2.088741   130A      2.116487  
     131A      2.156082   132A      2.220413   133A      2.305499  
     134A      2.378560   135A      2.395144   136A      2.428192  
     137A      2.448401   138A      2.478321   139A      2.482910  
     140A      2.498174   141A      2.509240   142A      2.515689  
     143A      2.524142   144A      2.545825   145A      2.590318  
     146A      2.627355   147A      2.652462   148A      2.667804  
     149A      2.679847   150A      2.692841   151A      2.701081  
     152A      2.745109   153A      2.758266   154A      2.793792  
     155A      2.809149   156A      2.838579   157A      2.855921  
     158A      2.874040   159A      2.878450   160A      2.908099  
     161A      2.946705   162A      3.011282   163A      3.013857  
     164A      3.109740   165A      3.136509   166A      3.217410  
     167A      3.249386   168A      3.284317   169A      3.455140  
     170A      3.544118   171A      3.613798   172A      3.671296  
     173A      3.746023   174A      3.796749   175A      3.846336  
     176A      3.934646   177A      4.042807   178A      4.116715  
     179A      4.153676   180A      4.190953   181A      4.212090  
     182A      4.287992   183A      4.324262   184A      4.354527  
     185A      4.369827   186A      4.398013   187A      4.421713  
     188A      4.427384   189A      4.464290   190A      4.490875  
     191A      4.518788   192A      4.553540   193A      4.578408  
     194A      4.613455   195A      4.623514   196A      4.646319  
     197A      4.666415   198A      4.705380   199A      4.726858  
     200A      4.759376   201A      4.806719   202A      4.841708  
     203A      4.856423   204A      4.901084   205A      4.938058  
     206A      5.018138   207A      5.090042   208A      5.112214  
     209A      5.158641   210A      5.209156   211A      5.241852  
     212A      5.251240   213A      5.300225   214A      5.313770  
     215A      5.333531   216A      5.377803   217A      5.460651  
     218A      5.521145   219A      5.588081   220A      5.634849  
     221A      5.693477   222A      5.771070   223A      5.815152  
     224A      5.996566   225A      6.025177   226A      6.252340  
     227A      6.279836   228A      6.319355   229A      6.509939  
     230A      6.550942   231A      6.659943   232A      6.702861  
     233A      6.783287   234A      6.894177   235A      6.954201  
     236A      7.066472   237A      7.116872   238A      7.145168  
     239A      7.223646   240A      7.290489   241A      7.321095  
     242A      7.328210   243A      7.332771   244A      7.362023  
     245A      7.379348   246A      7.461444   247A      7.497704  
     248A      7.543221   249A      7.670906   250A      7.713617  
     251A      7.730500   252A      7.826791   253A      7.863600  
     254A      7.923491   255A      8.015000   256A      8.042563  
     257A      8.076309   258A      8.154771   259A      8.280792  
     260A      8.373132   261A      8.792240   262A      8.802652  
     263A      8.864063   264A      8.940266   265A      9.713803  
     266A      9.886817   267A     10.161658   268A     10.376144  
     269A     11.185432   270A     11.811243   271A     12.190001  
     272A     13.532320   273A     13.994872   274A     15.958513  
     275A     16.689437   276A     65.575411  

    Final Occupation by Irrep:
              A 
    DOCC [    10 ]
    NA   [    10 ]
    NB   [    10 ]

  @RHF Final Energy:  -152.12014802529282

   => Energetics <=

    Nuclear Repulsion Energy =             37.2491186052980225
    One-Electron Energy =                -283.8665388790268480
    Two-Electron Energy =                  94.4972722484360190
    Total Energy =                       -152.1201480252928206

Computation Completed


Properties will be evaluated at   0.000000,   0.000000,   0.000000 [a0]

Properties computed using the SCF density matrix


 Multipole Moments:

 ------------------------------------------------------------------------------------
     Multipole            Electronic (a.u.)      Nuclear  (a.u.)        Total (a.u.)
 ------------------------------------------------------------------------------------

 L = 1.  Multiply by 2.5417464519 to convert [e a0] to [Debye]
 Dipole X            :       -114.3336654          114.4965280            0.1628626
 Dipole Y            :         85.6586470          -85.4990601            0.1595869
 Dipole Z            :         10.9904954          -12.3702275           -1.3797321
 Magnitude           :                                                    1.3984466

 ------------------------------------------------------------------------------------

*** tstop() called on d-19-15-2 at Mon Sep 18 18:16:09 2023
Module time:
	user time   =      84.68 seconds =       1.41 minutes
	system time =       7.56 seconds =       0.13 minutes
	total time  =        126 seconds =       2.10 minutes
Total time:
	user time   =   62281.50 seconds =    1038.03 minutes
	system time =   31707.08 seconds =     528.45 minutes
	total time  =     106065 seconds =    1767.75 minutes
 MINTS: Wrapper to libmints.
   by Justin Turney

   Calculation information:
      Number of threads:                 1
      Number of atoms:                   9
      Number of AO shells:              96
      Number of SO shells:              96
      Number of primitives:            156
      Number of atomic orbitals:       315
      Number of basis functions:       276

      Number of irreps:                  1
      Integral cutoff                 1.00e-12
      Number of functions per irrep: [ 276 ]

 OEINTS: Overlap, kinetic, potential, dipole, and quadrupole integrals
         stored in file 35.

      Computing two-electron integrals...done
      Computed 551110078 non-zero two-electron integrals.
        Stored in file 33.


*** tstart() called on d-19-15-2
*** at Mon Sep 18 18:17:17 2023


	Wfn Parameters:
	--------------------
	Wavefunction         = CCSD_T
	Number of irreps     = 1
	Number of MOs        = 276
	Number of active MOs = 276
	AO-Basis             = NONE
	Semicanonical        = false
	Reference            = RHF
	Print Level          = 1

	IRREP	# MOs	# FZDC	# DOCC	# SOCC	# VIRT	# FZVR
	-----	-----	------	------	------	------	------
	 A	   276	    0	    10	    0	    266	    0
	Transforming integrals...
	IWL integrals will be deleted.
	(OO|OO)...
	Presorting SO-basis two-electron integrals.
	Sorting File: SO Ints (nn|nn) nbuckets = 1
	Constructing frozen core operators
	Starting first half-transformation.
	Sorting half-transformed integrals.
	First half integral transformation complete.
	Starting second half-transformation.
	Two-electron integral transformation complete.
	(OO|OV)...
	Starting second half-transformation.
	Two-electron integral transformation complete.
	(OO|VV)...
	Starting second half-transformation.
	Two-electron integral transformation complete.
	(OV|OO)...
	Starting first half-transformation.
	Sorting half-transformed integrals.
	First half integral transformation complete.
	Starting second half-transformation.
	Two-electron integral transformation complete.
	(OV|OV)...
	Starting second half-transformation.
	Two-electron integral transformation complete.
	(OV|VV)...
	Starting second half-transformation.
	Two-electron integral transformation complete.
	(VV|OO)...
	Starting first half-transformation.
	Sorting half-transformed integrals.
	First half integral transformation complete.
	Starting second half-transformation.
	Two-electron integral transformation complete.
	(VV|OV)...
	Starting second half-transformation.
	Two-electron integral transformation complete.
	(VV|VV)...
	Starting second half-transformation.
	Two-electron integral transformation complete.
	Frozen core energy     =      0.00000000000000

	Size of irrep 0 of <ab|cd> integrals:   5006.412 (MW) /  40051.292 (MB)
	Total:                                  5006.412 (MW) /  40051.292 (MB)

	Size of irrep 0 of <ia|bc> integrals:    188.211 (MW) /   1505.688 (MB)
	Total:                                   188.211 (MW) /   1505.688 (MB)

	Size of irrep 0 of tijab amplitudes:       7.076 (MW) /     56.605 (MB)
	Total:                                     7.076 (MW) /     56.605 (MB)

	Nuclear Rep. energy          =     37.24911860529802
	SCF energy                   =   -152.12014802529282
	One-electron energy          =   -283.86653886574339
	Two-electron energy          =     94.49727223515281
	Reference energy             =   -152.12014802529256

*** tstop() called on d-19-15-2 at Mon Sep 18 18:35:46 2023
Module time:
	user time   =     522.37 seconds =       8.71 minutes
	system time =     363.33 seconds =       6.06 minutes
	total time  =       1109 seconds =      18.48 minutes
Total time:
	user time   =   62846.63 seconds =    1047.44 minutes
	system time =   32085.32 seconds =     534.76 minutes
	total time  =     107242 seconds =    1787.37 minutes
            **************************
            *                        *
            *        CCENERGY        *
            *                        *
            **************************

    Nuclear Rep. energy (wfn)     =   37.249118605298023
    SCF energy          (wfn)     = -152.120148025292821
    Reference energy    (file100) = -152.120148025292565

    Input parameters:
    -----------------
    Wave function   =     CCSD_T
    Reference wfn   =     RHF
    Brueckner       =     No
    Memory (Mbytes) =     20000.0
    Maxiter         =     50
    R_Convergence   =     1.0e-07
    E_Convergence   =     1.0e-10
    Restart         =     Yes
    DIIS            =     Yes
    AO Basis        =     NONE
    ABCD            =     NEW
    Cache Level     =     2
    Cache Type      =     LOW
    Print Level     =     1
    Num. of threads =     1
    # Amps to Print =     10
    Print MP2 Amps? =     No
    Analyze T2 Amps =     No
    Print Pair Ener =     No
    Local CC        =     No
    SCS-MP2         =     False
    SCSN-MP2        =     False
    SCS-CCSD        =     False

MP2 correlation energy -0.5734394549832323
                Solving CC Amplitude Equations
                ------------------------------
  Iter             Energy              RMS        T1Diag      D1Diag    New D1Diag    D2Diag
  ----     ---------------------    ---------   ----------  ----------  ----------   --------
     0        -0.573439454983232    0.000e+00    0.000000    0.000000    0.000000    0.120770
     1        -0.569224559260699    5.104e-02    0.007840    0.019182    0.019182    0.122261
     2        -0.579518291659415    1.791e-02    0.007704    0.018920    0.018920    0.127027
     3        -0.582239137464954    7.130e-03    0.008975    0.022715    0.022715    0.129230
     4        -0.581969896078336    1.566e-03    0.009149    0.023269    0.023269    0.129445
     5        -0.581984530525872    6.413e-04    0.009246    0.023649    0.023649    0.129510
     6        -0.582002414131407    1.834e-04    0.009274    0.023768    0.023768    0.129512
     7        -0.581998971398558    7.192e-05    0.009281    0.023804    0.023804    0.129503
     8        -0.581996983390186    2.333e-05    0.009283    0.023814    0.023814    0.129500
     9        -0.581997213963656    8.802e-06    0.009284    0.023818    0.023818    0.129500
    10        -0.581996794615011    3.460e-06    0.009284    0.023819    0.023819    0.129500
    11        -0.581996737769992    1.330e-06    0.009284    0.023819    0.023819    0.129500
    12        -0.581996711730871    6.201e-07    0.009284    0.023819    0.023819    0.129500
[...]
  Nuclear repulsion =   37.249118605298023

  Charge       = 0
  Multiplicity = 1
  Electrons    = 20
  Nalpha       = 10
  Nbeta        = 10

  ==> Algorithm <==

  SCF Algorithm Type is PK.
  DIIS enabled.
  MOM disabled.
  Fractional occupation disabled.
  Guess Type is SAD.
  Energy threshold   = 1.00e-10
  Density threshold  = 1.00e-10
  Integral threshold = 1.00e-12

  ==> Primary Basis <==

  Basis Set: AUG-CC-PVTZ
    Blend: AUG-CC-PVTZ
    Number of shells: 64
    Number of basis functions: 184
    Number of Cartesian functions: 210
    Spherical Harmonics?: true
    Max angular momentum: 3

  ==> Integral Setup <==

  Using in-core PK algorithm.
   Calculation information:
      Number of atoms:                   6
      Number of AO shells:              64
      Number of primitives:            104
      Number of atomic orbitals:       210
      Number of basis functions:       184

      Integral cutoff                 1.00e-12
      Number of threads:                 1

  Performing in-core PK
  Using 289697420 doubles for integral storage.
  We computed 2108486 shell quartets total.
  Whereas there are 2164240 unique shell quartets.

  ==> DiskJK: Disk-Based J/K Matrices <==

    J tasked:                  Yes
    K tasked:                  Yes
    wK tasked:                  No
    Memory [MiB]:            14305
    Schwarz Cutoff:          1E-12

    OpenMP threads:              1

  Minimum eigenvalue in the overlap matrix is 2.4848471243E-04.
  Reciprocal condition number of the overlap matrix is 2.6332947490E-05.
    Using symmetric orthogonalization.

  ==> Pre-Iterations <==

  SCF Guess: Superposition of Atomic Densities via on-the-fly atomic UHF (no occupation information).

   -------------------------
    Irrep   Nso     Nmo    
   -------------------------
     A        184     184 
   -------------------------
    Total     184     184
   -------------------------

  ==> Iterations <==

                        Total Energy        Delta E     RMS |[F,P]|

   @RHF iter SAD:  -151.02355245447961   -1.51024e+02   0.00000e+00 
   @RHF iter   1:  -151.96322459171722   -9.39672e-01   3.45768e-03 DIIS/ADIIS
   @RHF iter   2:  -152.06490647977574   -1.01682e-01   2.28705e-03 DIIS/ADIIS
   @RHF iter   3:  -152.11912275969394   -5.42163e-02   1.74828e-04 DIIS/ADIIS
   @RHF iter   4:  -152.12001607964996   -8.93320e-04   4.30200e-05 DIIS
   @RHF iter   5:  -152.12007173989463   -5.56602e-05   1.49507e-05 DIIS
   @RHF iter   6:  -152.12007771226880   -5.97237e-06   6.30872e-06 DIIS
   @RHF iter   7:  -152.12007867977388   -9.67505e-07   1.24074e-06 DIIS
   @RHF iter   8:  -152.12007875585667   -7.60828e-08   2.24728e-07 DIIS
   @RHF iter   9:  -152.12007875811531   -2.25864e-09   4.16742e-08 DIIS
   @RHF iter  10:  -152.12007875818202   -6.67058e-11   1.16311e-08 DIIS
   @RHF iter  11:  -152.12007875818796   -5.94014e-12   2.40795e-09 DIIS
   @RHF iter  12:  -152.12007875818810   -1.42109e-13   4.67058e-10 DIIS
   @RHF iter  13:  -152.12007875818804    5.68434e-14   2.02151e-10 DIIS
   @RHF iter  14:  -152.12007875818821   -1.70530e-13   4.63305e-11 DIIS
  Energy and wave function converged.


  ==> Post-Iterations <==

    Orbital Energies [Eh]
    ---------------------

    Doubly Occupied:                                                      

       1A    -20.595531     2A    -20.537481     3A     -1.377866  
       4A     -1.313024     5A     -0.747146     6A     -0.690094  
       7A     -0.611947     8A     -0.557954     9A     -0.525969  
      10A     -0.479245  

    Virtual:                                                              

      11A      0.020872    12A      0.040534    13A      0.054161  
      14A      0.071365    15A      0.121389    16A      0.139164  
      17A      0.158651    18A      0.169311    19A      0.180722  
      20A      0.196138    21A      0.209819    22A      0.223546  
      23A      0.228261    24A      0.242670    25A      0.259162  
      26A      0.292089    27A      0.302374    28A      0.305470  
      29A      0.359165    30A      0.365695    31A      0.380418  
      32A      0.403235    33A      0.421676    34A      0.429387  
      35A      0.449589    36A      0.457662    37A      0.491014  
      38A      0.553798    39A      0.580849    40A      0.592601  
      41A      0.658327    42A      0.678360    43A      0.710651  
      44A      0.738565    45A      0.741564    46A      0.762910  
      47A      0.771632    48A      0.787202    49A      0.836116  
      50A      0.861024    51A      0.864589    52A      0.897072  
      53A      0.918954    54A      0.927575    55A      0.940447  
      56A      0.959179    57A      0.972696    58A      0.980167  
      59A      0.991380    60A      1.011133    61A      1.036869  
      62A      1.043242    63A      1.050527    64A      1.087929  
      65A      1.112933    66A      1.147038    67A      1.159745  
      68A      1.166479    69A      1.202206    70A      1.213571  
      71A      1.240205    72A      1.262908    73A      1.277308  
      74A      1.315402    75A      1.340055    76A      1.424112  
      77A      1.470800    78A      1.516777    79A      1.556431  
      80A      1.573317    81A      1.615733    82A      1.660389  
      83A      1.696443    84A      1.775121    85A      1.806749  
      86A      1.830371    87A      1.856063    88A      1.983410  
      89A      2.012764    90A      2.066803    91A      2.149967  
      92A      2.275887    93A      2.313029    94A      2.353375  
      95A      2.372234    96A      2.388933    97A      2.411447  
      98A      2.442988    99A      2.469934   100A      2.480499  
     101A      2.516335   102A      2.528218   103A      2.554058  
     104A      2.631250   105A      2.662898   106A      2.692955  
     107A      2.741760   108A      2.752664   109A      2.777696  
     110A      2.792281   111A      2.851535   112A      2.861609  
     113A      2.937874   114A      2.963064   115A      3.011151  
     116A      3.194467   117A      3.709128   118A      3.745492  
     119A      3.814301   120A      3.994460   121A      4.045609  
     122A      4.079156   123A      4.167904   124A      4.185762  
     125A      4.240034   126A      4.260913   127A      4.299975  
     128A      4.313742   129A      4.353122   130A      4.402267  
     131A      4.426968   132A      4.454639   133A      4.469659  
     134A      4.488699   135A      4.509675   136A      4.604036  
     137A      4.618165   138A      4.704286   139A      4.723608  
     140A      4.812014   141A      4.835668   142A      5.001397  
     143A      5.109332   144A      5.137416   145A      5.162047  
     146A      5.196161   147A      5.298118   148A      5.318993  
     149A      5.337597   150A      5.355024   151A      5.499676  
     152A      5.597495   153A      5.762159   154A      5.797108  
     155A      6.194823   156A      6.263403   157A      6.540880  
     158A      6.583603   159A      6.761157   160A      6.805661  
     161A      6.888618   162A      6.912356   163A      7.118399  
     164A      7.201539   165A      7.275279   166A      7.291653  
     167A      7.300603   168A      7.316576   169A      7.320258  
     170A      7.351293   171A      7.378959   172A      7.417493  
     173A      7.464278   174A      7.508661   175A      7.610362  
     176A      7.793092   177A      7.918336   178A      7.950276  
     179A      8.015745   180A      8.031474   181A      8.782874  
     182A      8.803881   183A     15.806989   184A     16.325114  

    Final Occupation by Irrep:
              A 
    DOCC [    10 ]
    NA   [    10 ]
    NB   [    10 ]

  @RHF Final Energy:  -152.12007875818821

   => Energetics <=

    Nuclear Repulsion Energy =             37.2491186052980225
    One-Electron Energy =                -283.8658808064902814
    Two-Electron Energy =                  94.4966834430040876
    Total Energy =                       -152.1200787581881855

Computation Completed


Properties will be evaluated at   0.000000,   0.000000,   0.000000 [a0]

Properties computed using the SCF density matrix


 Multipole Moments:

 ------------------------------------------------------------------------------------
     Multipole            Electronic (a.u.)      Nuclear  (a.u.)        Total (a.u.)
 ------------------------------------------------------------------------------------

 L = 1.  Multiply by 2.5417464519 to convert [e a0] to [Debye]
 Dipole X            :       -114.3336672          114.4965280            0.1628608
 Dipole Y            :         85.6586143          -85.4990601            0.1595542
 Dipole Z            :         10.9899105          -12.3702275           -1.3803170
 Magnitude           :                                                    1.3990198

 ------------------------------------------------------------------------------------

*** tstop() called on d-19-15-2 at Mon Sep 18 23:54:30 2023
Module time:
	user time   =      18.28 seconds =       0.30 minutes
	system time =       0.54 seconds =       0.01 minutes
	total time  =         19 seconds =       0.32 minutes
Total time:
	user time   =   74236.16 seconds =    1237.27 minutes
	system time =   38035.42 seconds =     633.92 minutes
	total time  =     126366 seconds =    2106.10 minutes
 MINTS: Wrapper to libmints.
   by Justin Turney

   Calculation information:
      Number of threads:                 1
      Number of atoms:                   6
      Number of AO shells:              64
      Number of SO shells:              64
      Number of primitives:            104
      Number of atomic orbitals:       210
      Number of basis functions:       184

      Number of irreps:                  1
      Integral cutoff                 1.00e-12
      Number of functions per irrep: [ 184 ]

 OEINTS: Overlap, kinetic, potential, dipole, and quadrupole integrals
         stored in file 35.

      Computing two-electron integrals...done
      Computed 136391095 non-zero two-electron integrals.
        Stored in file 33.


*** tstart() called on d-19-15-2
*** at Mon Sep 18 23:54:42 2023


	Wfn Parameters:
	--------------------
	Wavefunction         = CCSD_T
	Number of irreps     = 1
	Number of MOs        = 184
	Number of active MOs = 184
	AO-Basis             = NONE
	Semicanonical        = false
	Reference            = RHF
	Print Level          = 1

	IRREP	# MOs	# FZDC	# DOCC	# SOCC	# VIRT	# FZVR
	-----	-----	------	------	------	------	------
	 A	   184	    0	    10	    0	    174	    0
	Transforming integrals...
	IWL integrals will be deleted.
	(OO|OO)...
	Presorting SO-basis two-electron integrals.
	Sorting File: SO Ints (nn|nn) nbuckets = 1
	Constructing frozen core operators
	Starting first half-transformation.
	Sorting half-transformed integrals.
	First half integral transformation complete.
	Starting second half-transformation.
	Two-electron integral transformation complete.
	(OO|OV)...
	Starting second half-transformation.
	Two-electron integral transformation complete.
	(OO|VV)...
	Starting second half-transformation.
	Two-electron integral transformation complete.
	(OV|OO)...
	Starting first half-transformation.
	Sorting half-transformed integrals.
	First half integral transformation complete.
	Starting second half-transformation.
	Two-electron integral transformation complete.
	(OV|OV)...
	Starting second half-transformation.
	Two-electron integral transformation complete.
	(OV|VV)...
	Starting second half-transformation.
	Two-electron integral transformation complete.
	(VV|OO)...
	Starting first half-transformation.
	Sorting half-transformed integrals.
	First half integral transformation complete.
	Starting second half-transformation.
	Two-electron integral transformation complete.
	(VV|OV)...
	Starting second half-transformation.
	Two-electron integral transformation complete.
	(VV|VV)...
	Starting second half-transformation.
	Two-electron integral transformation complete.
	Frozen core energy     =      0.00000000000000

	Size of irrep 0 of <ab|cd> integrals:    916.636 (MW) /   7333.089 (MB)
	Total:                                   916.636 (MW) /   7333.089 (MB)

	Size of irrep 0 of <ia|bc> integrals:     52.680 (MW) /    421.442 (MB)
	Total:                                    52.680 (MW) /    421.442 (MB)

	Size of irrep 0 of tijab amplitudes:       3.028 (MW) /     24.221 (MB)
	Total:                                     3.028 (MW) /     24.221 (MB)

	Nuclear Rep. energy          =     37.24911860529802
	SCF energy                   =   -152.12007875818821
	One-electron energy          =   -283.86588079248565
	Two-electron energy          =     94.49668342899987
	Reference energy             =   -152.12007875818779

*** tstop() called on d-19-15-2 at Mon Sep 18 23:56:23 2023
Module time:
	user time   =      59.01 seconds =       0.98 minutes
	system time =      40.89 seconds =       0.68 minutes
	total time  =        101 seconds =       1.68 minutes
Total time:
	user time   =   74303.86 seconds =    1238.40 minutes
	system time =   38079.32 seconds =     634.66 minutes
	total time  =     126479 seconds =    2107.98 minutes
            **************************
            *                        *
            *        CCENERGY        *
            *                        *
            **************************

    Nuclear Rep. energy (wfn)     =   37.249118605298023
    SCF energy          (wfn)     = -152.120078758188214
    Reference energy    (file100) = -152.120078758187788

    Input parameters:
    -----------------
    Wave function   =     CCSD_T
    Reference wfn   =     RHF
    Brueckner       =     No
    Memory (Mbytes) =     20000.0
    Maxiter         =     50
    R_Convergence   =     1.0e-07
    E_Convergence   =     1.0e-10
    Restart         =     Yes
    DIIS            =     Yes
    AO Basis        =     NONE
    ABCD            =     NEW
    Cache Level     =     2
    Cache Type      =     LOW
    Print Level     =     1
    Num. of threads =     1
    # Amps to Print =     10
    Print MP2 Amps? =     No
    Analyze T2 Amps =     No
    Print Pair Ener =     No
    Local CC        =     No
    SCS-MP2         =     False
    SCSN-MP2        =     False
    SCS-CCSD        =     False

MP2 correlation energy -0.5727559255013925
                Solving CC Amplitude Equations
                ------------------------------
  Iter             Energy              RMS        T1Diag      D1Diag    New D1Diag    D2Diag
  ----     ---------------------    ---------   ----------  ----------  ----------   --------
     0        -0.572755925501393    0.000e+00    0.000000    0.000000    0.000000    0.120750
     1        -0.568594902946476    5.101e-02    0.007840    0.019178    0.019178    0.122255
     2        -0.578882768902349    1.788e-02    0.007709    0.018932    0.018932    0.127023
     3        -0.581598550362390    7.116e-03    0.008983    0.022736    0.022736    0.129226
     4        -0.581324343130529    1.547e-03    0.009156    0.023288    0.023288    0.129438
     5        -0.581341521079902    6.311e-04    0.009253    0.023666    0.023666    0.129503
     6        -0.581358548317959    1.791e-04    0.009280    0.023782    0.023782    0.129504
     7        -0.581355054839918    7.109e-05    0.009287    0.023817    0.023817    0.129495
     8        -0.581353120009370    2.303e-05    0.009289    0.023826    0.023826    0.129493
     9        -0.581353368575330    8.664e-06    0.009289    0.023830    0.023830    0.129493
    10        -0.581352951637659    3.444e-06    0.009290    0.023831    0.023831    0.129493
    11        -0.581352896841843    1.312e-06    0.009290    0.023831    0.023831    0.129493
    12        -0.581352871529504    6.128e-07    0.009290    0.023831    0.023831    0.129493
    13        -0.581352858018255    2.356e-07    0.009289    0.023831    0.023831    0.129493
    14        -0.581352856376186    9.261e-08    0.009289    0.023831    0.023831    0.129493
    15        -0.581352857058283    3.899e-08    0.009289    0.023831    0.023831    0.129493
    16        -0.581352856860717    1.584e-08    0.009289    0.023831    0.023831    0.129493
    17        -0.581352856803725    6.281e-09    0.009289    0.023831    0.023831    0.129493
    18        -0.581352856837175    2.460e-09    0.009289    0.023831    0.023831    0.129493

    Iterations converged.


    Largest TIA Amplitudes:
              9   8        -0.0123562682
              8   4        -0.0082150489
              9  22         0.0080274519
              8  17         0.0074643272
              7  21         0.0070912173
              9   4        -0.0070909366
              7   6         0.0065717564
              7   4         0.0062531575
              9  17         0.0061210561
              6   4        -0.0056374029

    Largest TIjAb Amplitudes:
      5   5  26  26        -0.0158771687
      9   9  52  52        -0.0107035967
      4   4  25  25        -0.0100252402
      5   5  28  28        -0.0096302503
      4   4  24  24        -0.0093472967
      5   5  26  28        -0.0088546574
      5   5  28  26        -0.0088546574
      8   8  26  26        -0.0081837265
      5   5  26  51        -0.0079198537
      5   5  51  26        -0.0079198537

    SCF energy       (wfn)                    = -152.120078758188214
    Reference energy (file100)                = -152.120078758187788

    Opposite-spin MP2 correlation energy      =   -0.433920964875990
    Same-spin MP2 correlation energy          =   -0.138834960625402
    Singles MP2 correlation energy            =   -0.000000000000000
    MP2 correlation energy                    =   -0.572755925501393
      * MP2 total energy                      = -152.692834683689171

    Opposite-spin CCSD correlation energy     =   -0.457498734507438
    Same-spin CCSD correlation energy         =   -0.123854122329738
    Singles CCSD correlation energy           =    0.000000000000000
    CCSD correlation energy                   =   -0.581352856837175
      * CCSD total energy                     = -152.701431615024973

            **************************
            *                        *
            *        CCTRIPLES       *
            *                        *
            **************************


    Wave function   =    CCSD_T
    Reference wfn   =      RHF

    Nuclear Rep. energy (wfn)                =   37.249118605298023
    SCF energy          (wfn)                = -152.120078758188214
    Reference energy    (file100)            = -152.120078758187788
    CCSD energy         (file100)            =   -0.581352856837175
    Total CCSD energy   (file100)            = -152.701431615024973

    Number of ijk index combinations:              220
    Memory available in words               :      2500000000
    Approx. words needed per explicit thread:        21072096
    Number of threads for explicit ijk threading:    1

    MKL num_threads set to 1 for explicit threading.

    (T) energy                                =   -0.018353231425990
      * CCSD(T) total energy                  = -152.719784846450949


    Psi4 stopped on: Tuesday, 19 September 2023 12:03AM
    Psi4 wall time for execution: 0:09:06.42


  //>>>>>>>>>>>>>>>>>>>>>>>>>>>>>>>>>>>//
  //          ManyBody Results         //
  //<<<<<<<<<<<<<<<<<<<<<<<<<<<<<<<<<<<//


   ==> N-Body: Counterpoise Corrected (CP) energies <==

        n-Body     Total Energy            Interaction Energy                          N-body Contribution to Interaction Energy
                   [Eh]                    [Eh]                  [kcal/mol]            [Eh]                  [kcal/mol]
             1  N/A                         0.000000000000        0.000000000000        0.000000000000        0.000000000000
  FULL/RTN   2  N/A                        -0.005233546362       -3.284099923916       -0.005233546362       -3.284099923916


