Scratch directory: /home/gridsan/kfisher/scratch/

  //>>>>>>>>>>>>>>>>>>>>>>>>>>>>>>>>>>>>>>>>//
  // ManyBody Setup: N-Body Levels [1, 2, 3]//
  //<<<<<<<<<<<<<<<<<<<<<<<<<<<<<<<<<<<<<<<<//

        Number of 1-body computations:     3
        Number of 2-body computations:     3
        Number of 3-body computations:     1

    -----------------------------------------------------------------------
          Psi4: An Open-Source Ab Initio Electronic Structure Package
                               Psi4 1.7 release

                         Git: Rev {HEAD} 6ce35a5 


    D. G. A. Smith, L. A. Burns, A. C. Simmonett, R. M. Parrish,
    M. C. Schieber, R. Galvelis, P. Kraus, H. Kruse, R. Di Remigio,
    A. Alenaizan, A. M. James, S. Lehtola, J. P. Misiewicz, M. Scheurer,
    R. A. Shaw, J. B. Schriber, Y. Xie, Z. L. Glick, D. A. Sirianni,
    J. S. O'Brien, J. M. Waldrop, A. Kumar, E. G. Hohenstein,
    B. P. Pritchard, B. R. Brooks, H. F. Schaefer III, A. Yu. Sokolov,
    K. Patkowski, A. E. DePrince III, U. Bozkaya, R. A. King,
    F. A. Evangelista, J. M. Turney, T. D. Crawford, C. D. Sherrill,
    J. Chem. Phys. 152(18) 184108 (2020). https://doi.org/10.1063/5.0006002

                            Additional Code Authors
    E. T. Seidl, C. L. Janssen, E. F. Valeev, M. L. Leininger,
    J. F. Gonthier, R. M. Richard, H. R. McAlexander, M. Saitow, X. Wang,
    P. Verma, M. H. Lechner, A. Jiang, S. Behnle, A. G. Heide,
    M. F. Herbst, and D. L. Poole

             Previous Authors, Complete List of Code Contributors,
                       and Citations for Specific Modules
    https://github.com/psi4/psi4/blob/master/codemeta.json
    https://github.com/psi4/psi4/graphs/contributors
    http://psicode.org/psi4manual/master/introduction.html#citing-psifour

    -----------------------------------------------------------------------


    Psi4 started on: Sunday, 17 September 2023 12:48PM

    Process ID: 258105
    Host:       d-19-15-2
    PSIDATADIR: /home/gridsan/kfisher/.conda/envs/p4env/share/psi4
    Memory:     18.6 GiB
    Threads:    1
    
  ==> Input QCSchema <==

--------------------------------------------------------------------------
{'driver': 'energy',
 'extras': {'psiapi': True, 'wfn_qcvars_only': True},
 'id': None,
 'keywords': {'D_CONVERGENCE': 1e-10, 'E_CONVERGENCE': 1e-10, 'function_kwargs': {}},
 'model': {'basis': 'aug-cc-pvtz', 'method': 'ccsd(t)'},
 'molecule': {'atom_labels': ['', '', '', '', '', '', '', '', ''],
              'atomic_numbers': [1, 1, 8, 1, 1, 8, 1, 1, 8],
              'fix_com': True,
              'fix_orientation': True,
              'fix_symmetry': 'c1',
              'fragment_charges': [0.0, 0.0, 0.0],
              'fragment_multiplicities': [1, 1, 1],
              'fragments': [[0, 1, 2], [3, 4, 5], [6, 7, 8]],
              'geometry': [8.089863459123253, -2.7362000872387267, -3.439307482073281, 5.756813575064834,
                           -1.0147792821994315, -3.025940191136765, 6.371891404262917, -2.778193108767119,
                           -2.8393977285937986, 4.400977031968829, 2.8541305625911826, -1.5559415511441226,
                           2.926392121156006, 2.534748611531699, -4.168538488660688, 3.7527700361201193,
                           1.6297645148173667, -2.764762125994824, -1.702870818754792, 5.990171866975498,
                           -3.507360450481358, 0.5316601590680515, 6.332357218779926, -5.316333344057006,
                           -0.11223272431706587, 6.900311911347789, -3.643370918333655],
              'mass_numbers': [1, 1, 16, 1, 1, 16, 1, 1, 16],
              'masses': [1.00782503223, 1.00782503223, 15.99491461957, 1.00782503223, 1.00782503223, 15.99491461957,
                         1.00782503223, 1.00782503223, 15.99491461957],
              'molecular_charge': 0.0,
              'molecular_multiplicity': 1,
              'name': 'H6O3',
              'provenance': {'creator': 'QCElemental',
                             'routine': 'qcelemental.molparse.from_string',
                             'version': 'v0.25.1'},
              'real': [True, True, True, False, False, False, False, False, False],
              'schema_name': 'qcschema_molecule',
              'schema_version': 2,
              'symbols': ['H', 'H', 'O', 'H', 'H', 'O', 'H', 'H', 'O'],
              'validated': True},
 'protocols': {'stdout': True},
 'provenance': {'creator': 'QCElemental', 'routine': 'qcelemental.models.results', 'version': 'v0.25.1'},
 'schema_name': 'qcschema_input',
 'schema_version': 1}
--------------------------------------------------------------------------

Scratch directory: /home/gridsan/kfisher/scratch/

*** tstart() called on d-19-15-2
*** at Mon Sep 18 03:02:50 2023

   => Loading Basis Set <=

    Name: AUG-CC-PVTZ
    Role: ORBITAL
    Keyword: BASIS
    atoms 1-2, 4-5, 7-8 entry H          line    40 file /home/gridsan/kfisher/.conda/envs/p4env/share/psi4/basis/aug-cc-pvtz.gbs 
    atoms 3, 6, 9       entry O          line   331 file /home/gridsan/kfisher/.conda/envs/p4env/share/psi4/basis/aug-cc-pvtz.gbs 


         ---------------------------------------------------------
                                   SCF
               by Justin Turney, Rob Parrish, Andy Simmonett
                          and Daniel G. A. Smith
                              RHF Reference
                        1 Threads,  19073 MiB Core
         ---------------------------------------------------------

  ==> Geometry <==

    Molecular point group: c1
    Full point group: C1

    Geometry (in Bohr), charge = 0, multiplicity = 1:

       Center              X                  Y                   Z               Mass       
    ------------   -----------------  -----------------  -----------------  -----------------
         H            8.089863459123    -2.736200087239    -3.439307482073     1.007825032230
         H            5.756813575065    -1.014779282199    -3.025940191137     1.007825032230
         O            6.371891404263    -2.778193108767    -2.839397728594    15.994914619570
      Gh(H)           4.400977031969     2.854130562591    -1.555941551144     1.007825032230
      Gh(H)           2.926392121156     2.534748611532    -4.168538488661     1.007825032230
      Gh(O)           3.752770036120     1.629764514817    -2.764762125995    15.994914619570
      Gh(H)          -1.702870818755     5.990171866975    -3.507360450481     1.007825032230
      Gh(H)           0.531660159068     6.332357218780    -5.316333344057     1.007825032230
      Gh(O)          -0.112232724317     6.900311911348    -3.643370918334    15.994914619570

  Running in c1 symmetry.

  Rotational constants: A =      0.04893  B =      0.04430  C =      0.02344 [cm^-1]
  Rotational constants: A =   1466.73574  B =   1328.18854  C =    702.85990 [MHz]
  Nuclear repulsion =    8.998951035477010

  Charge       = 0
  Multiplicity = 1
  Electrons    = 10
  Nalpha       = 5
  Nbeta        = 5

  ==> Algorithm <==

  SCF Algorithm Type is PK.
  DIIS enabled.
  MOM disabled.
  Fractional occupation disabled.
  Guess Type is SAD.
  Energy threshold   = 1.00e-10
  Density threshold  = 1.00e-10
  Integral threshold = 1.00e-12

  ==> Primary Basis <==

  Basis Set: AUG-CC-PVTZ
    Blend: AUG-CC-PVTZ
    Number of shells: 96
    Number of basis functions: 276
    Number of Cartesian functions: 315
    Spherical Harmonics?: true
    Max angular momentum: 3

  ==> Integral Setup <==

  Using in-core PK algorithm.
   Calculation information:
      Number of atoms:                   9
      Number of AO shells:              96
      Number of primitives:            156
      Number of atomic orbitals:       315
      Number of basis functions:       276

      Integral cutoff                 1.00e-12
      Number of threads:                 1

  Performing in-core PK
  Using 1461265302 doubles for integral storage.
  We computed 8598601 shell quartets total.
  Whereas there are 10841496 unique shell quartets.

  ==> DiskJK: Disk-Based J/K Matrices <==

    J tasked:                  Yes
    K tasked:                  Yes
    wK tasked:                  No
    Memory [MiB]:            14305
    Schwarz Cutoff:          1E-12

    OpenMP threads:              1

  Minimum eigenvalue in the overlap matrix is 2.0435860321E-04.
  Reciprocal condition number of the overlap matrix is 2.0912875399E-05.
    Using symmetric orthogonalization.

  ==> Pre-Iterations <==

  SCF Guess: Superposition of Atomic Densities via on-the-fly atomic UHF (no occupation information).

   -------------------------
    Irrep   Nso     Nmo    
   -------------------------
     A        276     276 
   -------------------------
    Total     276     276
   -------------------------

  ==> Iterations <==

                        Total Energy        Delta E     RMS |[F,P]|

   @RHF iter SAD:   -75.45317450313928   -7.54532e+01   0.00000e+00 
   @RHF iter   1:   -75.97280957588512   -5.19635e-01   1.69276e-03 DIIS/ADIIS
   @RHF iter   2:   -76.02472966593723   -5.19201e-02   1.17843e-03 DIIS/ADIIS
   @RHF iter   3:   -76.05764045794848   -3.29108e-02   8.04405e-05 DIIS
   @RHF iter   4:   -76.05805973180676   -4.19274e-04   2.00431e-05 DIIS
   @RHF iter   5:   -76.05808856240277   -2.88306e-05   4.65601e-06 DIIS
   @RHF iter   6:   -76.05809101226882   -2.44987e-06   1.02652e-06 DIIS
   @RHF iter   7:   -76.05809114187713   -1.29608e-07   1.82690e-07 DIIS
   @RHF iter   8:   -76.05809114543095   -3.55382e-09   3.13403e-08 DIIS
   @RHF iter   9:   -76.05809114551585   -8.48956e-11   8.11146e-09 DIIS
   @RHF iter  10:   -76.05809114552079   -4.94538e-12   1.22142e-09 DIIS
   @RHF iter  11:   -76.05809114552099   -1.98952e-13   2.33393e-10 DIIS
   @RHF iter  12:   -76.05809114552130   -3.12639e-13   5.53520e-11 DIIS
  Energy and wave function converged.


  ==> Post-Iterations <==

    Orbital Energies [Eh]
    ---------------------

    Doubly Occupied:                                                      

       1A    -20.570656     2A     -1.343017     3A     -0.707009  
       4A     -0.580306     5A     -0.508601  

    Virtual:                                                              

       6A      0.019634     7A      0.034100     8A      0.047857  
       9A      0.050991    10A      0.058138    11A      0.085621  
      12A      0.114692    13A      0.118532    14A      0.124092  
      15A      0.145571    16A      0.156077    17A      0.164684  
      18A      0.174052    19A      0.175405    20A      0.181041  
      21A      0.197127    22A      0.231444    23A      0.238710  
      24A      0.244681    25A      0.259892    26A      0.276747  
      27A      0.278569    28A      0.290386    29A      0.305783  
      30A      0.314915    31A      0.323196    32A      0.328783  
      33A      0.343706    34A      0.346191    35A      0.351494  
      36A      0.367058    37A      0.376196    38A      0.395115  
      39A      0.396006    40A      0.415344    41A      0.429461  
      42A      0.437528    43A      0.448460    44A      0.461129  
      45A      0.466817    46A      0.554316    47A      0.577155  
      48A      0.653175    49A      0.666092    50A      0.679693  
      51A      0.701702    52A      0.710743    53A      0.727184  
      54A      0.740779    55A      0.752126    56A      0.754139  
      57A      0.765803    58A      0.770858    59A      0.785452  
      60A      0.800341    61A      0.804956    62A      0.810201  
      63A      0.827436    64A      0.836889    65A      0.841566  
      66A      0.848219    67A      0.879446    68A      0.892377  
      69A      0.896908    70A      0.907172    71A      0.917732  
      72A      0.933670    73A      0.943534    74A      0.950497  
      75A      0.960855    76A      0.963890    77A      0.981470  
      78A      0.999114    79A      1.004042    80A      1.011058  
      81A      1.023503    82A      1.038537    83A      1.046647  
      84A      1.061386    85A      1.069606    86A      1.095015  
      87A      1.099936    88A      1.114609    89A      1.131723  
      90A      1.150245    91A      1.177024    92A      1.196181  
      93A      1.219941    94A      1.232490    95A      1.237464  
      96A      1.256725    97A      1.285993    98A      1.292129  
      99A      1.339580   100A      1.399374   101A      1.411389  
     102A      1.447935   103A      1.466733   104A      1.473227  
     105A      1.485703   106A      1.514222   107A      1.534565  
     108A      1.571925   109A      1.613680   110A      1.640057  
     111A      1.680361   112A      1.706637   113A      1.719830  
     114A      1.740276   115A      1.790690   116A      1.808724  
     117A      1.816793   118A      1.834328   119A      1.849697  
     120A      1.872967   121A      1.903474   122A      1.927128  
     123A      1.977142   124A      2.035649   125A      2.050625  
     126A      2.064171   127A      2.137547   128A      2.298088  
     129A      2.341265   130A      2.388671   131A      2.432518  
     132A      2.437642   133A      2.450007   134A      2.459567  
     135A      2.469414   136A      2.484201   137A      2.492750  
     138A      2.526705   139A      2.533139   140A      2.545334  
     141A      2.554209   142A      2.587054   143A      2.595772  
     144A      2.612914   145A      2.652548   146A      2.668613  
     147A      2.715196   148A      2.734941   149A      2.771514  
     150A      2.810837   151A      2.848573   152A      2.856354  
     153A      2.889557   154A      2.917537   155A      2.936425  
     156A      3.016504   157A      3.045301   158A      3.130818  
     159A      3.146590   160A      3.170396   161A      3.197926  
     162A      3.229859   163A      3.268656   164A      3.281702  
     165A      3.309365   166A      3.315140   167A      3.389648  
     168A      3.522220   169A      3.535326   170A      3.655391  
     171A      3.677870   172A      3.703311   173A      3.790307  
     174A      4.051251   175A      4.100440   176A      4.204716  
     177A      4.218846   178A      4.298497   179A      4.335895  
     180A      4.367029   181A      4.379734   182A      4.400972  
     183A      4.418897   184A      4.460631   185A      4.476412  
     186A      4.510269   187A      4.528871   188A      4.559777  
     189A      4.607148   190A      4.636163   191A      4.651283  
     192A      4.661900   193A      4.684066   194A      4.696784  
     195A      4.821914   196A      4.870889   197A      4.884961  
     198A      4.929723   199A      4.971495   200A      4.990411  
     201A      5.002272   202A      5.034796   203A      5.125445  
     204A      5.147201   205A      5.207016   206A      5.243822  
     207A      5.265587   208A      5.308299   209A      5.428167  
     210A      5.433019   211A      5.474508   212A      5.531118  
     213A      5.536936   214A      5.598587   215A      5.614143  
     216A      5.699440   217A      5.800872   218A      5.823745  
     219A      5.902222   220A      6.099139   221A      6.228243  
     222A      6.240388   223A      6.321512   224A      6.392474  
     225A      6.492201   226A      6.550081   227A      6.739058  
     228A      6.773634   229A      6.928002   230A      6.954572  
     231A      7.006819   232A      7.163027   233A      7.276097  
     234A      7.324990   235A      7.326771   236A      7.381101  
     237A      7.512748   238A      7.668552   239A      7.677385  
     240A      7.791352   241A      7.834728   242A      7.871890  
     243A      7.966592   244A      8.020211   245A      8.022585  
     246A      8.099873   247A      8.127116   248A      8.215400  
     249A      8.272653   250A      8.299082   251A      8.577020  
     252A      8.696504   253A      8.716571   254A      8.746655  
     255A      8.803762   256A      9.710260   257A      9.816635  
     258A      9.862573   259A      9.982429   260A      9.992853  
     261A     10.034782   262A     10.220732   263A     10.420547  
     264A     11.057379   265A     11.090438   266A     11.634507  
     267A     11.745809   268A     11.862583   269A     12.251043  
     270A     13.375365   271A     13.441743   272A     13.810784  
     273A     13.885949   274A     16.149372   275A     63.624864  
     276A     65.281346  

    Final Occupation by Irrep:
              A 
    DOCC [     5 ]
    NA   [     5 ]
    NB   [     5 ]

  @RHF Final Energy:   -76.05809114552130

   => Energetics <=

    Nuclear Repulsion Energy =              8.9989510354770097
    One-Electron Energy =                -122.6949061069637708
    Two-Electron Energy =                  37.6378639259654619
    Total Energy =                        -76.0580911455213027

Computation Completed


Properties will be evaluated at   0.000000,   0.000000,   0.000000 [a0]

Properties computed using the SCF density matrix


 Multipole Moments:

 ------------------------------------------------------------------------------------
     Multipole            Electronic (a.u.)      Nuclear  (a.u.)        Total (a.u.)
 ------------------------------------------------------------------------------------

 L = 1.  Multiply by 2.5417464519 to convert [e a0] to [Debye]
 Dipole X            :        -64.4340311           64.8218083            0.3877772
 Dipole Y            :         26.6019476          -25.9765242            0.6254234
 Dipole Z            :         28.9059506          -29.1804295           -0.2744789
 Magnitude           :                                                    0.7854070

 ------------------------------------------------------------------------------------

*** tstop() called on d-19-15-2 at Mon Sep 18 03:04:06 2023
Module time:
	user time   =      72.88 seconds =       1.21 minutes
	system time =       2.85 seconds =       0.05 minutes
	total time  =         76 seconds =       1.27 minutes
Total time:
	user time   =   30760.37 seconds =     512.67 minutes
	system time =   14817.80 seconds =     246.96 minutes
	total time  =      51342 seconds =     855.70 minutes
 MINTS: Wrapper to libmints.
   by Justin Turney

   Calculation information:
      Number of threads:                 1
      Number of atoms:                   9
      Number of AO shells:              96
      Number of SO shells:              96
      Number of primitives:            156
      Number of atomic orbitals:       315
      Number of basis functions:       276

      Number of irreps:                  1
      Integral cutoff                 1.00e-12
      Number of functions per irrep: [ 276 ]

 OEINTS: Overlap, kinetic, potential, dipole, and quadrupole integrals
         stored in file 35.

      Computing two-electron integrals...done
      Computed 507056528 non-zero two-electron integrals.
        Stored in file 33.


*** tstart() called on d-19-15-2
*** at Mon Sep 18 03:05:00 2023


	Wfn Parameters:
	--------------------
	Wavefunction         = CCSD_T
	Number of irreps     = 1
	Number of MOs        = 276
	Number of active MOs = 276
	AO-Basis             = NONE
	Semicanonical        = false
	Reference            = RHF
	Print Level          = 1

	IRREP	# MOs	# FZDC	# DOCC	# SOCC	# VIRT	# FZVR
	-----	-----	------	------	------	------	------
	 A	   276	    0	    5	    0	    271	    0
	Transforming integrals...
	IWL integrals will be deleted.
	(OO|OO)...
	Presorting SO-basis two-electron integrals.
	Sorting File: SO Ints (nn|nn) nbuckets = 1
	Constructing frozen core operators
	Starting first half-transformation.
	Sorting half-transformed integrals.
	First half integral transformation complete.
	Starting second half-transformation.
	Two-electron integral transformation complete.
	(OO|OV)...
	Starting second half-transformation.
	Two-electron integral transformation complete.
	(OO|VV)...
	Starting second half-transformation.
	Two-electron integral transformation complete.
	(OV|OO)...
	Starting first half-transformation.
	Sorting half-transformed integrals.
	First half integral transformation complete.
	Starting second half-transformation.
	Two-electron integral transformation complete.
	(OV|OV)...
	Starting second half-transformation.
	Two-electron integral transformation complete.
	(OV|VV)...
	Starting second half-transformation.
	Two-electron integral transformation complete.
	(VV|OO)...
	Starting first half-transformation.
	Sorting half-transformed integrals.
	First half integral transformation complete.
	Starting second half-transformation.
	Two-electron integral transformation complete.
	(VV|OV)...
	Starting second half-transformation.
	Two-electron integral transformation complete.
	(VV|VV)...
	Starting second half-transformation.
	Two-electron integral transformation complete.
	Frozen core energy     =      0.00000000000000

	Size of irrep 0 of <ab|cd> integrals:   5393.580 (MW) /  43148.644 (MB)
	Total:                                  5393.580 (MW) /  43148.644 (MB)

	Size of irrep 0 of <ia|bc> integrals:     99.513 (MW) /    796.100 (MB)
	Total:                                    99.513 (MW) /    796.100 (MB)

	Size of irrep 0 of tijab amplitudes:       1.836 (MW) /     14.688 (MB)
	Total:                                     1.836 (MW) /     14.688 (MB)

	Nuclear Rep. energy          =      8.99895103547701
	SCF energy                   =    -76.05809114552130
	One-electron energy          =   -122.69490611054232
	Two-electron energy          =     37.63786392954400
	Reference energy             =    -76.05809114552132

*** tstop() called on d-19-15-2 at Mon Sep 18 03:21:10 2023
Module time:
	user time   =     519.96 seconds =       8.67 minutes
	system time =     320.58 seconds =       5.34 minutes
	total time  =        970 seconds =      16.17 minutes
Total time:
	user time   =   31323.32 seconds =     522.06 minutes
	system time =   15149.67 seconds =     252.49 minutes
	total time  =      52366 seconds =     872.77 minutes
            **************************
            *                        *
            *        CCENERGY        *
            *                        *
            **************************

    Nuclear Rep. energy (wfn)     =    8.998951035477010
    SCF energy          (wfn)     =  -76.058091145521303
    Reference energy    (file100) =  -76.058091145521317

    Input parameters:
    -----------------
    Wave function   =     CCSD_T
    Reference wfn   =     RHF
    Brueckner       =     No
    Memory (Mbytes) =     20000.0
    Maxiter         =     50
    R_Convergence   =     1.0e-07
    E_Convergence   =     1.0e-10
    Restart         =     Yes
    DIIS            =     Yes
    AO Basis        =     NONE
    ABCD            =     NEW
    Cache Level     =     2
    Cache Type      =     LOW
    Print Level     =     1
    Num. of threads =     1
    # Amps to Print =     10
    Print MP2 Amps? =     No
    Analyze T2 Amps =     No
    Print Pair Ener =     No
    Local CC        =     No
    SCS-MP2         =     False
    SCSN-MP2        =     False
    SCS-CCSD        =     False

MP2 correlation energy -0.2857504928384983
                Solving CC Amplitude Equations
                ------------------------------
  Iter             Energy              RMS        T1Diag      D1Diag    New D1Diag    D2Diag
  ----     ---------------------    ---------   ----------  ----------  ----------   --------
     0        -0.285750492838498    0.000e+00    0.000000    0.000000    0.000000    0.120414
     1        -0.283685455449732    3.633e-02    0.007785    0.017562    0.017562    0.122817
     2        -0.288889467936067    1.295e-02    0.007625    0.017349    0.017349    0.127664
     3        -0.290297484578462    5.085e-03    0.008862    0.020718    0.020718    0.130015
     4        -0.290161042287242    1.103e-03    0.009023    0.021195    0.021195    0.130241
     5        -0.290173161696616    4.154e-04    0.009111    0.021501    0.021501    0.130312
     6        -0.290180803547357    1.110e-04    0.009134    0.021587    0.021587    0.130313
     7        -0.290179048420787    4.101e-05    0.009140    0.021611    0.021611    0.130305
     8        -0.290178348503272    1.251e-05    0.009141    0.021617    0.021617    0.130303
     9        -0.290178481709196    4.650e-06    0.009142    0.021620    0.021620    0.130303
    10        -0.290178273427265    1.734e-06    0.009142    0.021620    0.021620    0.130303
    11        -0.290178262626897    6.135e-07    0.009142    0.021620    0.021620    0.130303
    12        -0.290178253122676    2.719e-07    0.009142    0.021620    0.021620    0.130303
    13        -0.290178247939912    1.066e-07    0.009142    0.021620    0.021620    0.130303
    14        -0.290178247319548    3.987e-08    0.009142    0.021620    0.021620    0.130303
    15        -0.290178247591591    1.349e-08    0.009142    0.021620    0.021620    0.130303
    16        -0.290178247578810    5.315e-09    0.009142    0.021620    0.021620    0.130303
    17        -0.290178247560475    1.878e-09    0.009142    0.021620    0.021620    0.130303

    Iterations converged.


    Largest TIA Amplitudes:
              4  14         0.0087312420
              4  21         0.0069610576
              4  13        -0.0067357537
              4  11         0.0066637370
              3   7        -0.0053255479
              3  25         0.0049534956
              4   2         0.0046572490
              4   8         0.0046412214
              4  24        -0.0045852068
              3  28        -0.0039970279

    Largest TIjAb Amplitudes:
      2   2  39  39        -0.0156511667
      2   2  19  39        -0.0086395715
      2   2  39  19        -0.0086395715
      2   2  39  78        -0.0085523238
      2   2  78  39        -0.0085523238
      4   4 122 122        -0.0075918689
      2   2  39  42        -0.0072471242
      2   2  42  39        -0.0072471242
      3   3  39  39        -0.0069603562
      4   4  49  49        -0.0066803811

    SCF energy       (wfn)                    =  -76.058091145521303
    Reference energy (file100)                =  -76.058091145521317

    Opposite-spin MP2 correlation energy      =   -0.217015887959872
    Same-spin MP2 correlation energy          =   -0.068734604878626
    Singles MP2 correlation energy            =   -0.000000000000000
    MP2 correlation energy                    =   -0.285750492838498
      * MP2 total energy                      =  -76.343841638359820

    Opposite-spin CCSD correlation energy     =   -0.229099494214803
    Same-spin CCSD correlation energy         =   -0.061078753345671
    Singles CCSD correlation energy           =    0.000000000000000
    CCSD correlation energy                   =   -0.290178247560475
      * CCSD total energy                     =  -76.348269393081793

            **************************
            *                        *
            *        CCTRIPLES       *
            *                        *
            **************************


    Wave function   =    CCSD_T
    Reference wfn   =      RHF

    Nuclear Rep. energy (wfn)                =    8.998951035477010
    SCF energy          (wfn)                =  -76.058091145521303
    Reference energy    (file100)            =  -76.058091145521317
    CCSD energy         (file100)            =   -0.290178247560475
    Total CCSD energy   (file100)            =  -76.348269393081793

    Number of ijk index combinations:               35
    Memory available in words               :      2500000000
    Approx. words needed per explicit thread:        79610044
    Number of threads for explicit ijk threading:    1

    MKL num_threads set to 1 for explicit threading.

    (T) energy                                =   -0.009000922749097
      * CCSD(T) total energy                  =  -76.357270315830888


    Psi4 stopped on: Monday, 18 September 2023 03:31AM
    Psi4 wall time for execution: 0:28:24.04


    -----------------------------------------------------------------------
          Psi4: An Open-Source Ab Initio Electronic Structure Package
                               Psi4 1.7 release

                         Git: Rev {HEAD} 6ce35a5 


    D. G. A. Smith, L. A. Burns, A. C. Simmonett, R. M. Parrish,
    M. C. Schieber, R. Galvelis, P. Kraus, H. Kruse, R. Di Remigio,
    A. Alenaizan, A. M. James, S. Lehtola, J. P. Misiewicz, M. Scheurer,
    R. A. Shaw, J. B. Schriber, Y. Xie, Z. L. Glick, D. A. Sirianni,
    J. S. O'Brien, J. M. Waldrop, A. Kumar, E. G. Hohenstein,
    B. P. Pritchard, B. R. Brooks, H. F. Schaefer III, A. Yu. Sokolov,
    K. Patkowski, A. E. DePrince III, U. Bozkaya, R. A. King,
    F. A. Evangelista, J. M. Turney, T. D. Crawford, C. D. Sherrill,
    J. Chem. Phys. 152(18) 184108 (2020). https://doi.org/10.1063/5.0006002

                            Additional Code Authors
    E. T. Seidl, C. L. Janssen, E. F. Valeev, M. L. Leininger,
    J. F. Gonthier, R. M. Richard, H. R. McAlexander, M. Saitow, X. Wang,
    P. Verma, M. H. Lechner, A. Jiang, S. Behnle, A. G. Heide,
    M. F. Herbst, and D. L. Poole

             Previous Authors, Complete List of Code Contributors,
                       and Citations for Specific Modules
    https://github.com/psi4/psi4/blob/master/codemeta.json
    https://github.com/psi4/psi4/graphs/contributors
    http://psicode.org/psi4manual/master/introduction.html#citing-psifour

    -----------------------------------------------------------------------


    Psi4 started on: Sunday, 17 September 2023 12:48PM

    Process ID: 258105
    Host:       d-19-15-2
    PSIDATADIR: /home/gridsan/kfisher/.conda/envs/p4env/share/psi4
    Memory:     18.6 GiB
    Threads:    1
    
  ==> Input QCSchema <==

--------------------------------------------------------------------------
{'driver': 'energy',
 'extras': {'psiapi': True, 'wfn_qcvars_only': True},
 'id': None,
 'keywords': {'D_CONVERGENCE': 1e-10, 'E_CONVERGENCE': 1e-10, 'function_kwargs': {}},
 'model': {'basis': 'aug-cc-pvtz', 'method': 'ccsd(t)'},
 'molecule': {'atom_labels': ['', '', '', '', '', '', '', '', ''],
              'atomic_numbers': [1, 1, 8, 1, 1, 8, 1, 1, 8],
              'fix_com': True,
              'fix_orientation': True,
              'fix_symmetry': 'c1',
              'fragment_charges': [0.0, 0.0, 0.0],
              'fragment_multiplicities': [1, 1, 1],
              'fragments': [[0, 1, 2], [3, 4, 5], [6, 7, 8]],
              'geometry': [8.089863459123253, -2.7362000872387267, -3.439307482073281, 5.756813575064834,
                           -1.0147792821994315, -3.025940191136765, 6.371891404262917, -2.778193108767119,
                           -2.8393977285937986, 4.400977031968829, 2.8541305625911826, -1.5559415511441226,
                           2.926392121156006, 2.534748611531699, -4.168538488660688, 3.7527700361201193,
                           1.6297645148173667, -2.764762125994824, -1.702870818754792, 5.990171866975498,
                           -3.507360450481358, 0.5316601590680515, 6.332357218779926, -5.316333344057006,
                           -0.11223272431706587, 6.900311911347789, -3.643370918333655],
              'mass_numbers': [1, 1, 16, 1, 1, 16, 1, 1, 16],
              'masses': [1.00782503223, 1.00782503223, 15.99491461957, 1.00782503223, 1.00782503223, 15.99491461957,
                         1.00782503223, 1.00782503223, 15.99491461957],
              'molecular_charge': 0.0,
              'molecular_multiplicity': 1,
              'name': 'H6O3',
              'provenance': {'creator': 'QCElemental',
                             'routine': 'qcelemental.molparse.from_string',
                             'version': 'v0.25.1'},
              'real': [False, False, False, True, True, True, False, False, False],
              'schema_name': 'qcschema_molecule',
              'schema_version': 2,
              'symbols': ['H', 'H', 'O', 'H', 'H', 'O', 'H', 'H', 'O'],
              'validated': True},
 'protocols': {'stdout': True},
 'provenance': {'creator': 'QCElemental', 'routine': 'qcelemental.models.results', 'version': 'v0.25.1'},
 'schema_name': 'qcschema_input',
 'schema_version': 1}
--------------------------------------------------------------------------

Scratch directory: /home/gridsan/kfisher/scratch/

*** tstart() called on d-19-15-2
*** at Mon Sep 18 03:31:14 2023

   => Loading Basis Set <=

    Name: AUG-CC-PVTZ
    Role: ORBITAL
    Keyword: BASIS
    atoms 1-2, 4-5, 7-8 entry H          line    40 file /home/gridsan/kfisher/.conda/envs/p4env/share/psi4/basis/aug-cc-pvtz.gbs 
    atoms 3, 6, 9       entry O          line   331 file /home/gridsan/kfisher/.conda/envs/p4env/share/psi4/basis/aug-cc-pvtz.gbs 


         ---------------------------------------------------------
                                   SCF
               by Justin Turney, Rob Parrish, Andy Simmonett
                          and Daniel G. A. Smith
                              RHF Reference
                        1 Threads,  19073 MiB Core
         ---------------------------------------------------------

  ==> Geometry <==

    Molecular point group: c1
    Full point group: C1

    Geometry (in Bohr), charge = 0, multiplicity = 1:

       Center              X                  Y                   Z               Mass       
    ------------   -----------------  -----------------  -----------------  -----------------
      Gh(H)           8.089863459123    -2.736200087239    -3.439307482073     1.007825032230
      Gh(H)           5.756813575065    -1.014779282199    -3.025940191137     1.007825032230
      Gh(O)           6.371891404263    -2.778193108767    -2.839397728594    15.994914619570
         H            4.400977031969     2.854130562591    -1.555941551144     1.007825032230
         H            2.926392121156     2.534748611532    -4.168538488661     1.007825032230
         O            3.752770036120     1.629764514817    -2.764762125995    15.994914619570
      Gh(H)          -1.702870818755     5.990171866975    -3.507360450481     1.007825032230
      Gh(H)           0.531660159068     6.332357218780    -5.316333344057     1.007825032230
      Gh(O)          -0.112232724317     6.900311911348    -3.643370918334    15.994914619570

  Running in c1 symmetry.

  Rotational constants: A =      0.04893  B =      0.04430  C =      0.02344 [cm^-1]
  Rotational constants: A =   1466.73574  B =   1328.18854  C =    702.85990 [MHz]
  Nuclear repulsion =    8.975657196283546

  Charge       = 0
  Multiplicity = 1
  Electrons    = 10
  Nalpha       = 5
  Nbeta        = 5

  ==> Algorithm <==

  SCF Algorithm Type is PK.
  DIIS enabled.
  MOM disabled.
  Fractional occupation disabled.
  Guess Type is SAD.
  Energy threshold   = 1.00e-10
  Density threshold  = 1.00e-10
  Integral threshold = 1.00e-12

  ==> Primary Basis <==

  Basis Set: AUG-CC-PVTZ
    Blend: AUG-CC-PVTZ
    Number of shells: 96
    Number of basis functions: 276
    Number of Cartesian functions: 315
    Spherical Harmonics?: true
    Max angular momentum: 3

  ==> Integral Setup <==

  Using in-core PK algorithm.
   Calculation information:
      Number of atoms:                   9
      Number of AO shells:              96
      Number of primitives:            156
      Number of atomic orbitals:       315
      Number of basis functions:       276

      Integral cutoff                 1.00e-12
      Number of threads:                 1

  Performing in-core PK
  Using 1461265302 doubles for integral storage.
  We computed 8598601 shell quartets total.
  Whereas there are 10841496 unique shell quartets.

  ==> DiskJK: Disk-Based J/K Matrices <==

    J tasked:                  Yes
    K tasked:                  Yes
    wK tasked:                  No
    Memory [MiB]:            14305
    Schwarz Cutoff:          1E-12

    OpenMP threads:              1

  Minimum eigenvalue in the overlap matrix is 2.0435860321E-04.
  Reciprocal condition number of the overlap matrix is 2.0912875399E-05.
    Using symmetric orthogonalization.

  ==> Pre-Iterations <==

  SCF Guess: Superposition of Atomic Densities via on-the-fly atomic UHF (no occupation information).

   -------------------------
    Irrep   Nso     Nmo    
   -------------------------
     A        276     276 
   -------------------------
    Total     276     276
   -------------------------

  ==> Iterations <==

                        Total Energy        Delta E     RMS |[F,P]|

   @RHF iter SAD:   -75.44759419470081   -7.54476e+01   0.00000e+00 
   @RHF iter   1:   -75.97300216343554   -5.25408e-01   1.69176e-03 DIIS/ADIIS
   @RHF iter   2:   -76.02469136664374   -5.16892e-02   1.17445e-03 DIIS/ADIIS
   @RHF iter   3:   -76.05735121060457   -3.26598e-02   8.01881e-05 DIIS
   @RHF iter   4:   -76.05777532176482   -4.24111e-04   2.00697e-05 DIIS
   @RHF iter   5:   -76.05780449678019   -2.91750e-05   4.63633e-06 DIIS
   @RHF iter   6:   -76.05780698412670   -2.48735e-06   1.03997e-06 DIIS
   @RHF iter   7:   -76.05780712156403   -1.37437e-07   1.94344e-07 DIIS
   @RHF iter   8:   -76.05780712576137   -4.19735e-09   3.31826e-08 DIIS
   @RHF iter   9:   -76.05780712586125   -9.98739e-11   8.63540e-09 DIIS
   @RHF iter  10:   -76.05780712586724   -5.99698e-12   1.16477e-09 DIIS
   @RHF iter  11:   -76.05780712586754   -2.98428e-13   1.93257e-10 DIIS
   @RHF iter  12:   -76.05780712586728    2.55795e-13   4.29203e-11 DIIS
  Energy and wave function converged.


  ==> Post-Iterations <==

    Orbital Energies [Eh]
    ---------------------

    Doubly Occupied:                                                      

       1A    -20.568734     2A     -1.339187     3A     -0.714051  
       4A     -0.571657     5A     -0.507082  

    Virtual:                                                              

       6A      0.020884     7A      0.038301     8A      0.046329  
       9A      0.050161    10A      0.063968    11A      0.080358  
      12A      0.116286    13A      0.119254    14A      0.135154  
      15A      0.150705    16A      0.156829    17A      0.157566  
      18A      0.171822    19A      0.175387    20A      0.192260  
      21A      0.200160    22A      0.220714    23A      0.228233  
      24A      0.240475    25A      0.273666    26A      0.280823  
      27A      0.284333    28A      0.287938    29A      0.300098  
      30A      0.312555    31A      0.320661    32A      0.327023  
      33A      0.352807    34A      0.355129    35A      0.371782  
      36A      0.375563    37A      0.394256    38A      0.404974  
      39A      0.413128    40A      0.417276    41A      0.445177  
      42A      0.451300    43A      0.458315    44A      0.467578  
      45A      0.475772    46A      0.562503    47A      0.616747  
      48A      0.645222    49A      0.660366    50A      0.667443  
      51A      0.674930    52A      0.695447    53A      0.705784  
      54A      0.741019    55A      0.747074    56A      0.753693  
      57A      0.758136    58A      0.775651    59A      0.788866  
      60A      0.801641    61A      0.810014    62A      0.821562  
      63A      0.825018    64A      0.834375    65A      0.837590  
      66A      0.850224    67A      0.873409    68A      0.891571  
      69A      0.896258    70A      0.917473    71A      0.933093  
      72A      0.942760    73A      0.949162    74A      0.958555  
      75A      0.966963    76A      0.982846    77A      0.997082  
      78A      1.001149    79A      1.011680    80A      1.025852  
      81A      1.035098    82A      1.046191    83A      1.053078  
      84A      1.069723    85A      1.073771    86A      1.094104  
      87A      1.121713    88A      1.150438    89A      1.154042  
      90A      1.175789    91A      1.184457    92A      1.198565  
      93A      1.202565    94A      1.221082    95A      1.258892  
      96A      1.273426    97A      1.296255    98A      1.326635  
      99A      1.355682   100A      1.392110   101A      1.399772  
     102A      1.427636   103A      1.452403   104A      1.475353  
     105A      1.505334   106A      1.548222   107A      1.579847  
     108A      1.632506   109A      1.652760   110A      1.693844  
     111A      1.703049   112A      1.724609   113A      1.752038  
     114A      1.773406   115A      1.778014   116A      1.788582  
     117A      1.808909   118A      1.839181   119A      1.851860  
     120A      1.874284   121A      1.892640   122A      1.918907  
     123A      1.946027   124A      2.044035   125A      2.054435  
     126A      2.108910   127A      2.175545   128A      2.274373  
     129A      2.335010   130A      2.394804   131A      2.437807  
     132A      2.462759   133A      2.482138   134A      2.487168  
     135A      2.487818   136A      2.517172   137A      2.529495  
     138A      2.546259   139A      2.559920   140A      2.569051  
     141A      2.588654   142A      2.593524   143A      2.609133  
     144A      2.632039   145A      2.642752   146A      2.670778  
     147A      2.725576   148A      2.761810   149A      2.770123  
     150A      2.786971   151A      2.814724   152A      2.826031  
     153A      2.847943   154A      2.900083   155A      2.928580  
     156A      3.045269   157A      3.065677   158A      3.099446  
     159A      3.135504   160A      3.172069   161A      3.224784  
     162A      3.226346   163A      3.239916   164A      3.291453  
     165A      3.301302   166A      3.408753   167A      3.492842  
     168A      3.521064   169A      3.574186   170A      3.620264  
     171A      3.667089   172A      3.783696   173A      3.849058  
     174A      3.938222   175A      4.136758   176A      4.234896  
     177A      4.255441   178A      4.322525   179A      4.368801  
     180A      4.413273   181A      4.432932   182A      4.447027  
     183A      4.477526   184A      4.494319   185A      4.519681  
     186A      4.564959   187A      4.577341   188A      4.595886  
     189A      4.624666   190A      4.631528   191A      4.642383  
     192A      4.661007   193A      4.712826   194A      4.754686  
     195A      4.787515   196A      4.824054   197A      4.879146  
     198A      4.895522   199A      4.936301   200A      4.986442  
     201A      5.005655   202A      5.014548   203A      5.141617  
     204A      5.172879   205A      5.199389   206A      5.244361  
     207A      5.301556   208A      5.360362   209A      5.381589  
     210A      5.464682   211A      5.515953   212A      5.528583  
     213A      5.576292   214A      5.590728   215A      5.657029  
     216A      5.762115   217A      5.825096   218A      5.829743  
     219A      5.936921   220A      6.088294   221A      6.160930  
     222A      6.306778   223A      6.311139   224A      6.479885  
     225A      6.527176   226A      6.608344   227A      6.660100  
     228A      6.904142   229A      6.946047   230A      6.990289  
     231A      7.079037   232A      7.205752   233A      7.304940  
     234A      7.355686   235A      7.394845   236A      7.440137  
     237A      7.572412   238A      7.658857   239A      7.729114  
     240A      7.740080   241A      7.818998   242A      7.853330  
     243A      7.897072   244A      8.004053   245A      8.037896  
     246A      8.092017   247A      8.097290   248A      8.217426  
     249A      8.259218   250A      8.324318   251A      8.567464  
     252A      8.719318   253A      8.733483   254A      8.866105  
     255A      8.958459   256A      9.675603   257A      9.701389  
     258A      9.852776   259A      9.879079   260A      9.983191  
     261A     10.127794   262A     10.211081   263A     10.361180  
     264A     11.079139   265A     11.219407   266A     11.631082  
     267A     11.766427   268A     11.853893   269A     12.133128  
     270A     13.388630   271A     13.560261   272A     13.799736  
     273A     13.992594   274A     16.056919   275A     63.615922  
     276A     65.492122  

    Final Occupation by Irrep:
              A 
    DOCC [     5 ]
    NA   [     5 ]
    NB   [     5 ]

  @RHF Final Energy:   -76.05780712586728

   => Energetics <=

    Nuclear Repulsion Energy =              8.9756571962835459
    One-Electron Energy =                -122.6655065351530567
    Two-Electron Energy =                  37.6320422130022365
    Total Energy =                        -76.0578071258672708

Computation Completed


Properties will be evaluated at   0.000000,   0.000000,   0.000000 [a0]

Properties computed using the SCF density matrix


 Multipole Moments:

 ------------------------------------------------------------------------------------
     Multipole            Electronic (a.u.)      Nuclear  (a.u.)        Total (a.u.)
 ------------------------------------------------------------------------------------

 L = 1.  Multiply by 2.5417464519 to convert [e a0] to [Debye]
 Dipole X            :        -37.4116161           37.3495294           -0.0620866
 Dipole Y            :        -17.6773602           18.4269953            0.7496351
 Dipole Z            :         27.7757590          -27.8425770           -0.0668181
 Magnitude           :                                                    0.7551636

 ------------------------------------------------------------------------------------

*** tstop() called on d-19-15-2 at Mon Sep 18 03:32:30 2023
Module time:
	user time   =      69.01 seconds =       1.15 minutes
	system time =       2.61 seconds =       0.04 minutes
	total time  =         76 seconds =       1.27 minutes
Total time:
	user time   =   31659.50 seconds =     527.66 minutes
	system time =   15397.78 seconds =     256.63 minutes
	total time  =      53046 seconds =     884.10 minutes
 MINTS: Wrapper to libmints.
   by Justin Turney

   Calculation information:
      Number of threads:                 1
      Number of atoms:                   9
      Number of AO shells:              96
      Number of SO shells:              96
      Number of primitives:            156
      Number of atomic orbitals:       315
      Number of basis functions:       276

      Number of irreps:                  1
      Integral cutoff                 1.00e-12
      Number of functions per irrep: [ 276 ]

 OEINTS: Overlap, kinetic, potential, dipole, and quadrupole integrals
         stored in file 35.

      Computing two-electron integrals...done
      Computed 507056528 non-zero two-electron integrals.
        Stored in file 33.


*** tstart() called on d-19-15-2
*** at Mon Sep 18 03:33:45 2023


	Wfn Parameters:
	--------------------
	Wavefunction         = CCSD_T
	Number of irreps     = 1
	Number of MOs        = 276
	Number of active MOs = 276
	AO-Basis             = NONE
	Semicanonical        = false
	Reference            = RHF
	Print Level          = 1

	IRREP	# MOs	# FZDC	# DOCC	# SOCC	# VIRT	# FZVR
	-----	-----	------	------	------	------	------
	 A	   276	    0	    5	    0	    271	    0
	Transforming integrals...
	IWL integrals will be deleted.
	(OO|OO)...
	Presorting SO-basis two-electron integrals.
	Sorting File: SO Ints (nn|nn) nbuckets = 1
	Constructing frozen core operators
	Starting first half-transformation.
	Sorting half-transformed integrals.
	First half integral transformation complete.
	Starting second half-transformation.
	Two-electron integral transformation complete.
	(OO|OV)...
	Starting second half-transformation.
	Two-electron integral transformation complete.
	(OO|VV)...
	Starting second half-transformation.
	Two-electron integral transformation complete.
	(OV|OO)...
	Starting first half-transformation.
	Sorting half-transformed integrals.
	First half integral transformation complete.
	Starting second half-transformation.
	Two-electron integral transformation complete.
	(OV|OV)...
	Starting second half-transformation.
	Two-electron integral transformation complete.
	(OV|VV)...
	Starting second half-transformation.
	Two-electron integral transformation complete.
	(VV|OO)...
	Starting first half-transformation.
	Sorting half-transformed integrals.
	First half integral transformation complete.
	Starting second half-transformation.
	Two-electron integral transformation complete.
	(VV|OV)...
	Starting second half-transformation.
	Two-electron integral transformation complete.
	(VV|VV)...
	Starting second half-transformation.
	Two-electron integral transformation complete.
	Frozen core energy     =      0.00000000000000

	Size of irrep 0 of <ab|cd> integrals:   5393.580 (MW) /  43148.644 (MB)
	Total:                                  5393.580 (MW) /  43148.644 (MB)

	Size of irrep 0 of <ia|bc> integrals:     99.513 (MW) /    796.100 (MB)
	Total:                                    99.513 (MW) /    796.100 (MB)

	Size of irrep 0 of tijab amplitudes:       1.836 (MW) /     14.688 (MB)
	Total:                                     1.836 (MW) /     14.688 (MB)

	Nuclear Rep. energy          =      8.97565719628355
	SCF energy                   =    -76.05780712586728
	One-electron energy          =   -122.66550654249463
	Two-electron energy          =     37.63204222034364
	Reference energy             =    -76.05780712586744

*** tstop() called on d-19-15-2 at Mon Sep 18 03:48:34 2023
Module time:
	user time   =     498.20 seconds =       8.30 minutes
	system time =     291.22 seconds =       4.85 minutes
	total time  =        889 seconds =      14.82 minutes
Total time:
	user time   =   32201.56 seconds =     536.69 minutes
	system time =   15702.83 seconds =     261.71 minutes
	total time  =      54010 seconds =     900.17 minutes
            **************************
            *                        *
            *        CCENERGY        *
            *                        *
            **************************

    Nuclear Rep. energy (wfn)     =    8.975657196283546
    SCF energy          (wfn)     =  -76.057807125867285
    Reference energy    (file100) =  -76.057807125867441

    Input parameters:
    -----------------
    Wave function   =     CCSD_T
    Reference wfn   =     RHF
    Brueckner       =     No
    Memory (Mbytes) =     20000.0
    Maxiter         =     50
    R_Convergence   =     1.0e-07
    E_Convergence   =     1.0e-10
    Restart         =     Yes
    DIIS            =     Yes
    AO Basis        =     NONE
    ABCD            =     NEW
    Cache Level     =     2
    Cache Type      =     LOW
    Print Level     =     1
    Num. of threads =     1
    # Amps to Print =     10
    Print MP2 Amps? =     No
    Analyze T2 Amps =     No
    Print Pair Ener =     No
    Local CC        =     No
    SCS-MP2         =     False
    SCSN-MP2        =     False
    SCS-CCSD        =     False

MP2 correlation energy -0.2857764108075986
                Solving CC Amplitude Equations
                ------------------------------
  Iter             Energy              RMS        T1Diag      D1Diag    New D1Diag    D2Diag
  ----     ---------------------    ---------   ----------  ----------  ----------   --------
     0        -0.285776410807599    0.000e+00    0.000000    0.000000    0.000000    0.119610
     1        -0.283706455071905    3.633e-02    0.007768    0.017474    0.017474    0.121976
     2        -0.288892727984870    1.295e-02    0.007594    0.017207    0.017207    0.126670
     3        -0.290299807181027    5.093e-03    0.008818    0.020520    0.020520    0.128943
     4        -0.290168406667338    1.128e-03    0.008979    0.020990    0.020990    0.129152
     5        -0.290177705817323    4.316e-04    0.009067    0.021293    0.021293    0.129214
     6        -0.290186434831314    1.210e-04    0.009092    0.021384    0.021384    0.129215
     7        -0.290184902276936    4.420e-05    0.009098    0.021408    0.021408    0.129206
     8        -0.290184079490715    1.409e-05    0.009099    0.021415    0.021415    0.129204
     9        -0.290184211726937    5.282e-06    0.009100    0.021417    0.021417    0.129204
    10        -0.290183998360978    1.990e-06    0.009100    0.021418    0.021418    0.129204
    11        -0.290183982477539    7.261e-07    0.009100    0.021417    0.021417    0.129204
    12        -0.290183971525378    3.088e-07    0.009100    0.021417    0.021417    0.129204
    13        -0.290183966063844    1.061e-07    0.009100    0.021417    0.021417    0.129204
    14        -0.290183965621431    3.678e-08    0.009100    0.021417    0.021417    0.129204
    15        -0.290183965801465    1.290e-08    0.009100    0.021417    0.021417    0.129204
    16        -0.290183965738462    4.677e-09    0.009100    0.021417    0.021417    0.129204
    17        -0.290183965722585    1.708e-09    0.009100    0.021417    0.021417    0.129204

    Iterations converged.


    Largest TIA Amplitudes:
              4   8        -0.0097268866
              4  34         0.0088768991
              4  13        -0.0063597111
              4  10        -0.0059371267
              4  23         0.0044058850
              2 120        -0.0040587020
              3  23         0.0039269552
              4   7        -0.0037622022
              4  32        -0.0036638630
              3  10         0.0036231701

    Largest TIjAb Amplitudes:
      2   2  38  38        -0.0106558828
      4   4  34  34        -0.0080560297
      2   2  37  37        -0.0078184567
      2   2  42  42        -0.0075891340
      2   2  14  38        -0.0071552921
      2   2  38  14        -0.0071552921
      0   0 268 268        -0.0066235749
      3   3  37  37        -0.0064378392
      2   2  12  37        -0.0063260129
      2   2  37  12        -0.0063260129

    SCF energy       (wfn)                    =  -76.057807125867285
    Reference energy (file100)                =  -76.057807125867441

    Opposite-spin MP2 correlation energy      =   -0.217052470863829
    Same-spin MP2 correlation energy          =   -0.068723939943769
    Singles MP2 correlation energy            =   -0.000000000000000
    MP2 correlation energy                    =   -0.285776410807599
      * MP2 total energy                      =  -76.343583536675041

    Opposite-spin CCSD correlation energy     =   -0.229097703257951
    Same-spin CCSD correlation energy         =   -0.061086262464633
    Singles CCSD correlation energy           =    0.000000000000000
    CCSD correlation energy                   =   -0.290183965722585
      * CCSD total energy                     =  -76.347991091590032

            **************************
            *                        *
            *        CCTRIPLES       *
            *                        *
            **************************


    Wave function   =    CCSD_T
    Reference wfn   =      RHF

    Nuclear Rep. energy (wfn)                =    8.975657196283546
    SCF energy          (wfn)                =  -76.057807125867285
    Reference energy    (file100)            =  -76.057807125867441
    CCSD energy         (file100)            =   -0.290183965722585
    Total CCSD energy   (file100)            =  -76.347991091590032

    Number of ijk index combinations:               35
    Memory available in words               :      2500000000
    Approx. words needed per explicit thread:        79610044
    Number of threads for explicit ijk threading:    1

    MKL num_threads set to 1 for explicit threading.

    (T) energy                                =   -0.009008909914435
      * CCSD(T) total energy                  =  -76.357000001504460


    Psi4 stopped on: Monday, 18 September 2023 04:00AM
    Psi4 wall time for execution: 0:29:31.93


    -----------------------------------------------------------------------
          Psi4: An Open-Source Ab Initio Electronic Structure Package
                               Psi4 1.7 release

                         Git: Rev {HEAD} 6ce35a5 


    D. G. A. Smith, L. A. Burns, A. C. Simmonett, R. M. Parrish,
    M. C. Schieber, R. Galvelis, P. Kraus, H. Kruse, R. Di Remigio,
    A. Alenaizan, A. M. James, S. Lehtola, J. P. Misiewicz, M. Scheurer,
    R. A. Shaw, J. B. Schriber, Y. Xie, Z. L. Glick, D. A. Sirianni,
    J. S. O'Brien, J. M. Waldrop, A. Kumar, E. G. Hohenstein,
    B. P. Pritchard, B. R. Brooks, H. F. Schaefer III, A. Yu. Sokolov,
    K. Patkowski, A. E. DePrince III, U. Bozkaya, R. A. King,
    F. A. Evangelista, J. M. Turney, T. D. Crawford, C. D. Sherrill,
    J. Chem. Phys. 152(18) 184108 (2020). https://doi.org/10.1063/5.0006002

                            Additional Code Authors
    E. T. Seidl, C. L. Janssen, E. F. Valeev, M. L. Leininger,
    J. F. Gonthier, R. M. Richard, H. R. McAlexander, M. Saitow, X. Wang,
    P. Verma, M. H. Lechner, A. Jiang, S. Behnle, A. G. Heide,
    M. F. Herbst, and D. L. Poole

             Previous Authors, Complete List of Code Contributors,
                       and Citations for Specific Modules
    https://github.com/psi4/psi4/blob/master/codemeta.json
    https://github.com/psi4/psi4/graphs/contributors
    http://psicode.org/psi4manual/master/introduction.html#citing-psifour

    -----------------------------------------------------------------------


    Psi4 started on: Sunday, 17 September 2023 12:48PM

    Process ID: 258105
    Host:       d-19-15-2
    PSIDATADIR: /home/gridsan/kfisher/.conda/envs/p4env/share/psi4
    Memory:     18.6 GiB
    Threads:    1
    
  ==> Input QCSchema <==

--------------------------------------------------------------------------
{'driver': 'energy',
 'extras': {'psiapi': True, 'wfn_qcvars_only': True},
 'id': None,
 'keywords': {'D_CONVERGENCE': 1e-10, 'E_CONVERGENCE': 1e-10, 'function_kwargs': {}},
 'model': {'basis': 'aug-cc-pvtz', 'method': 'ccsd(t)'},
 'molecule': {'atom_labels': ['', '', '', '', '', '', '', '', ''],
              'atomic_numbers': [1, 1, 8, 1, 1, 8, 1, 1, 8],
              'fix_com': True,
              'fix_orientation': True,
              'fix_symmetry': 'c1',
              'fragment_charges': [0.0, 0.0, 0.0],
              'fragment_multiplicities': [1, 1, 1],
              'fragments': [[0, 1, 2], [3, 4, 5], [6, 7, 8]],
              'geometry': [8.089863459123253, -2.7362000872387267, -3.439307482073281, 5.756813575064834,
                           -1.0147792821994315, -3.025940191136765, 6.371891404262917, -2.778193108767119,
                           -2.8393977285937986, 4.400977031968829, 2.8541305625911826, -1.5559415511441226,
                           2.926392121156006, 2.534748611531699, -4.168538488660688, 3.7527700361201193,
                           1.6297645148173667, -2.764762125994824, -1.702870818754792, 5.990171866975498,
                           -3.507360450481358, 0.5316601590680515, 6.332357218779926, -5.316333344057006,
                           -0.11223272431706587, 6.900311911347789, -3.643370918333655],
              'mass_numbers': [1, 1, 16, 1, 1, 16, 1, 1, 16],
              'masses': [1.00782503223, 1.00782503223, 15.99491461957, 1.00782503223, 1.00782503223, 15.99491461957,
                         1.00782503223, 1.00782503223, 15.99491461957],
              'molecular_charge': 0.0,
              'molecular_multiplicity': 1,
              'name': 'H6O3',
              'provenance': {'creator': 'QCElemental',
                             'routine': 'qcelemental.molparse.from_string',
                             'version': 'v0.25.1'},
              'real': [False, False, False, True, True, True, True, True, True],
              'schema_name': 'qcschema_molecule',
              'schema_version': 2,
              'symbols': ['H', 'H', 'O', 'H', 'H', 'O', 'H', 'H', 'O'],
              'validated': True},
 'protocols': {'stdout': True},
 'provenance': {'creator': 'QCElemental', 'routine': 'qcelemental.models.results', 'version': 'v0.25.1'},
 'schema_name': 'qcschema_input',
 'schema_version': 1}
--------------------------------------------------------------------------

Scratch directory: /home/gridsan/kfisher/scratch/

*** tstart() called on d-19-15-2
*** at Mon Sep 18 04:00:46 2023

   => Loading Basis Set <=

    Name: AUG-CC-PVTZ
    Role: ORBITAL
    Keyword: BASIS
    atoms 1-2, 4-5, 7-8 entry H          line    40 file /home/gridsan/kfisher/.conda/envs/p4env/share/psi4/basis/aug-cc-pvtz.gbs 
    atoms 3, 6, 9       entry O          line   331 file /home/gridsan/kfisher/.conda/envs/p4env/share/psi4/basis/aug-cc-pvtz.gbs 


         ---------------------------------------------------------
                                   SCF
               by Justin Turney, Rob Parrish, Andy Simmonett
                          and Daniel G. A. Smith
                              RHF Reference
                        1 Threads,  19073 MiB Core
         ---------------------------------------------------------

  ==> Geometry <==

    Molecular point group: c1
    Full point group: C1

    Geometry (in Bohr), charge = 0, multiplicity = 1:

       Center              X                  Y                   Z               Mass       
    ------------   -----------------  -----------------  -----------------  -----------------
      Gh(H)           8.089863459123    -2.736200087239    -3.439307482073     1.007825032230
      Gh(H)           5.756813575065    -1.014779282199    -3.025940191137     1.007825032230
      Gh(O)           6.371891404263    -2.778193108767    -2.839397728594    15.994914619570
         H            4.400977031969     2.854130562591    -1.555941551144     1.007825032230
         H            2.926392121156     2.534748611532    -4.168538488661     1.007825032230
         O            3.752770036120     1.629764514817    -2.764762125995    15.994914619570
         H           -1.702870818755     5.990171866975    -3.507360450481     1.007825032230
         H            0.531660159068     6.332357218780    -5.316333344057     1.007825032230
         O           -0.112232724317     6.900311911348    -3.643370918334    15.994914619570

  Running in c1 symmetry.

  Rotational constants: A =      0.04893  B =      0.04430  C =      0.02344 [cm^-1]
  Rotational constants: A =   1466.73574  B =   1328.18854  C =    702.85990 [MHz]
  Nuclear repulsion =   33.482145313772797

  Charge       = 0
  Multiplicity = 1
  Electrons    = 20
  Nalpha       = 10
  Nbeta        = 10

  ==> Algorithm <==

  SCF Algorithm Type is PK.
  DIIS enabled.
  MOM disabled.
  Fractional occupation disabled.
  Guess Type is SAD.
  Energy threshold   = 1.00e-10
  Density threshold  = 1.00e-10
  Integral threshold = 1.00e-12

  ==> Primary Basis <==

  Basis Set: AUG-CC-PVTZ
    Blend: AUG-CC-PVTZ
    Number of shells: 96
    Number of basis functions: 276
    Number of Cartesian functions: 315
    Spherical Harmonics?: true
    Max angular momentum: 3

  ==> Integral Setup <==

  Using in-core PK algorithm.
   Calculation information:
      Number of atoms:                   9
      Number of AO shells:              96
      Number of primitives:            156
      Number of atomic orbitals:       315
      Number of basis functions:       276

      Integral cutoff                 1.00e-12
      Number of threads:                 1

  Performing in-core PK
  Using 1461265302 doubles for integral storage.
  We computed 8598601 shell quartets total.
  Whereas there are 10841496 unique shell quartets.

  ==> DiskJK: Disk-Based J/K Matrices <==

    J tasked:                  Yes
    K tasked:                  Yes
    wK tasked:                  No
    Memory [MiB]:            14305
    Schwarz Cutoff:          1E-12

    OpenMP threads:              1

  Minimum eigenvalue in the overlap matrix is 2.0435860321E-04.
  Reciprocal condition number of the overlap matrix is 2.0912875399E-05.
    Using symmetric orthogonalization.

  ==> Pre-Iterations <==

  SCF Guess: Superposition of Atomic Densities via on-the-fly atomic UHF (no occupation information).

   -------------------------
    Irrep   Nso     Nmo    
   -------------------------
     A        276     276 
   -------------------------
    Total     276     276
   -------------------------

  ==> Iterations <==

                        Total Energy        Delta E     RMS |[F,P]|

   @RHF iter SAD:  -150.92451718866977   -1.50925e+02   0.00000e+00 
   @RHF iter   1:  -151.94676994829419   -1.02225e+00   2.37065e-03 DIIS/ADIIS
   @RHF iter   2:  -152.04968273491997   -1.02913e-01   1.63924e-03 DIIS/ADIIS
   @RHF iter   3:  -152.11335099616045   -6.36683e-02   1.15296e-04 DIIS/ADIIS
   @RHF iter   4:  -152.11422629968564   -8.75304e-04   2.87766e-05 DIIS
   @RHF iter   5:  -152.11428655126105   -6.02516e-05   7.45687e-06 DIIS
   @RHF iter   6:  -152.11429188142802   -5.33017e-06   3.04944e-06 DIIS
   @RHF iter   7:  -152.11429234726026   -4.65832e-07   9.26111e-07 DIIS
   @RHF iter   8:  -152.11429242252058   -7.52603e-08   1.55097e-07 DIIS
   @RHF iter   9:  -152.11429242503706   -2.51649e-09   3.02912e-08 DIIS
   @RHF iter  10:  -152.11429242513304   -9.59801e-11   9.87333e-09 DIIS
   @RHF iter  11:  -152.11429242514288   -9.83391e-12   2.19529e-09 DIIS
   @RHF iter  12:  -152.11429242514407   -1.19371e-12   5.70896e-10 DIIS
   @RHF iter  13:  -152.11429242514345    6.25278e-13   2.47382e-10 DIIS
   @RHF iter  14:  -152.11429242514302    4.26326e-13   6.01636e-11 DIIS
  Energy and wave function converged.


  ==> Post-Iterations <==

    Orbital Energies [Eh]
    ---------------------

    Doubly Occupied:                                                      

       1A    -20.586100     2A    -20.564407     3A     -1.355709  
       4A     -1.335027     5A     -0.714445     6A     -0.709215  
       7A     -0.597477     8A     -0.569189     9A     -0.522467  
      10A     -0.502320  

    Virtual:                                                              

      11A      0.021736    12A      0.038119    13A      0.045168  
      14A      0.051382    15A      0.064764    16A      0.081006  
      17A      0.124587    18A      0.135787    19A      0.142803  
      20A      0.157434    21A      0.159588    22A      0.167121  
      23A      0.177338    24A      0.178269    25A      0.197844  
      26A      0.205081    27A      0.218294    28A      0.223414  
      29A      0.232857    30A      0.266308    31A      0.272159  
      32A      0.274444    33A      0.282086    34A      0.301613  
      35A      0.316419    36A      0.319505    37A      0.349122  
      38A      0.353045    39A      0.368220    40A      0.373438  
      41A      0.391180    42A      0.404619    43A      0.412175  
      44A      0.427317    45A      0.435540    46A      0.450429  
      47A      0.454840    48A      0.461967    49A      0.473351  
      50A      0.482903    51A      0.549473    52A      0.596148  
      53A      0.620055    54A      0.636263    55A      0.657554  
      56A      0.674416    57A      0.687892    58A      0.698378  
      59A      0.715761    60A      0.730136    61A      0.745785  
      62A      0.756182    63A      0.775095    64A      0.777732  
      65A      0.804264    66A      0.817172    67A      0.826801  
      68A      0.834371    69A      0.836713    70A      0.854173  
      71A      0.878648    72A      0.886908    73A      0.897370  
      74A      0.912726    75A      0.923597    76A      0.930420  
      77A      0.940755    78A      0.957143    79A      0.962601  
      80A      0.980633    81A      0.983298    82A      0.998242  
      83A      1.012001    84A      1.015430    85A      1.027740  
      86A      1.035420    87A      1.043168    88A      1.057373  
      89A      1.059162    90A      1.069830    91A      1.087556  
      92A      1.093787    93A      1.135146    94A      1.155763  
      95A      1.174157    96A      1.177540    97A      1.186473  
      98A      1.195641    99A      1.211100   100A      1.258627  
     101A      1.267701   102A      1.282052   103A      1.296814  
     104A      1.341816   105A      1.359658   106A      1.384343  
     107A      1.399985   108A      1.432549   109A      1.497438  
     110A      1.517370   111A      1.542340   112A      1.552166  
     113A      1.586072   114A      1.615634   115A      1.658973  
     116A      1.687984   117A      1.706137   118A      1.753726  
     119A      1.769632   120A      1.785597   121A      1.810348  
     122A      1.821917   123A      1.860720   124A      1.875480  
     125A      1.893211   126A      1.919334   127A      1.949684  
     128A      1.968165   129A      2.052640   130A      2.094098  
     131A      2.128842   132A      2.170603   133A      2.268236  
     134A      2.286306   135A      2.340834   136A      2.361106  
     137A      2.365330   138A      2.439235   139A      2.459475  
     140A      2.465594   141A      2.484359   142A      2.487453  
     143A      2.515149   144A      2.519043   145A      2.554731  
     146A      2.561057   147A      2.583389   148A      2.587936  
     149A      2.627058   150A      2.630579   151A      2.668034  
     152A      2.701656   153A      2.731920   154A      2.741787  
     155A      2.751757   156A      2.772656   157A      2.783822  
     158A      2.789658   159A      2.808295   160A      2.827739  
     161A      2.867587   162A      2.902475   163A      2.928855  
     164A      3.047637   165A      3.080196   166A      3.106528  
     167A      3.226473   168A      3.230362   169A      3.408818  
     170A      3.494068   171A      3.568184   172A      3.615411  
     173A      3.682401   174A      3.744207   175A      3.788728  
     176A      3.847642   177A      3.938294   178A      4.044906  
     179A      4.128027   180A      4.154937   181A      4.174754  
     182A      4.220107   183A      4.238112   184A      4.243263  
     185A      4.314585   186A      4.336417   187A      4.377430  
     188A      4.412832   189A      4.439460   190A      4.455705  
     191A      4.477085   192A      4.488946   193A      4.500521  
     194A      4.517864   195A      4.572595   196A      4.609291  
     197A      4.636283   198A      4.660203   199A      4.717393  
     200A      4.719014   201A      4.744125   202A      4.797643  
     203A      4.804827   204A      4.843151   205A      4.897420  
     206A      4.990837   207A      5.007286   208A      5.076514  
     209A      5.107984   210A      5.131986   211A      5.159025  
     212A      5.202493   213A      5.234067   214A      5.278927  
     215A      5.307783   216A      5.360392   217A      5.381724  
     218A      5.474573   219A      5.524015   220A      5.578042  
     221A      5.610502   222A      5.657447   223A      5.777235  
     224A      5.831836   225A      5.939022   226A      6.162054  
     227A      6.214122   228A      6.308006   229A      6.521496  
     230A      6.526372   231A      6.611811   232A      6.660162  
     233A      6.708643   234A      6.884616   235A      6.918610  
     236A      6.994597   237A      7.078129   238A      7.107921  
     239A      7.205317   240A      7.219729   241A      7.260419  
     242A      7.284831   243A      7.310010   244A      7.343076  
     245A      7.364786   246A      7.377451   247A      7.418512  
     248A      7.443975   249A      7.488507   250A      7.579432  
     251A      7.728963   252A      7.741406   253A      7.836846  
     254A      7.859191   255A      7.880027   256A      7.900842  
     257A      8.040976   258A      8.097826   259A      8.217944  
     260A      8.324821   261A      8.690134   262A      8.737354  
     263A      8.866930   264A      8.959124   265A      9.676887  
     266A      9.879516   267A     10.128102   268A     10.361588  
     269A     11.220170   270A     11.766776   271A     12.133350  
     272A     13.560428   273A     13.992910   274A     15.221284  
     275A     16.059330   276A     65.492510  

    Final Occupation by Irrep:
              A 
    DOCC [    10 ]
    NA   [    10 ]
    NB   [    10 ]

  @RHF Final Energy:  -152.11429242514302

   => Energetics <=

    Nuclear Repulsion Energy =             33.4821453137727971
    One-Electron Energy =                -276.2801630242736337
    Two-Electron Energy =                  90.6837252853577951
    Total Energy =                       -152.1142924251430486

Computation Completed


Properties will be evaluated at   0.000000,   0.000000,   0.000000 [a0]

Properties computed using the SCF density matrix


 Multipole Moments:

 ------------------------------------------------------------------------------------
     Multipole            Electronic (a.u.)      Nuclear  (a.u.)        Total (a.u.)
 ------------------------------------------------------------------------------------

 L = 1.  Multiply by 2.5417464519 to convert [e a0] to [Debye]
 Dipole X            :        -35.7042183           35.2804570           -0.4237613
 Dipole Y            :        -85.6722032           85.9520197            0.2798165
 Dipole Z            :         65.2571270          -65.8132382           -0.5561112
 Magnitude           :                                                    0.7530807

 ------------------------------------------------------------------------------------

*** tstop() called on d-19-15-2 at Mon Sep 18 04:03:00 2023
Module time:
	user time   =      82.03 seconds =       1.37 minutes
	system time =      10.47 seconds =       0.17 minutes
	total time  =        134 seconds =       2.23 minutes
Total time:
	user time   =   32563.39 seconds =     542.72 minutes
	system time =   16041.25 seconds =     267.35 minutes
	total time  =      54876 seconds =     914.60 minutes
 MINTS: Wrapper to libmints.
   by Justin Turney

   Calculation information:
      Number of threads:                 1
      Number of atoms:                   9
      Number of AO shells:              96
      Number of SO shells:              96
      Number of primitives:            156
      Number of atomic orbitals:       315
      Number of basis functions:       276

      Number of irreps:                  1
      Integral cutoff                 1.00e-12
      Number of functions per irrep: [ 276 ]

 OEINTS: Overlap, kinetic, potential, dipole, and quadrupole integrals
         stored in file 35.

      Computing two-electron integrals...done
      Computed 507056528 non-zero two-electron integrals.
        Stored in file 33.


*** tstart() called on d-19-15-2
*** at Mon Sep 18 04:04:19 2023


	Wfn Parameters:
	--------------------
	Wavefunction         = CCSD_T
	Number of irreps     = 1
	Number of MOs        = 276
	Number of active MOs = 276
	AO-Basis             = NONE
	Semicanonical        = false
	Reference            = RHF
	Print Level          = 1

	IRREP	# MOs	# FZDC	# DOCC	# SOCC	# VIRT	# FZVR
	-----	-----	------	------	------	------	------
	 A	   276	    0	    10	    0	    266	    0
	Transforming integrals...
	IWL integrals will be deleted.
	(OO|OO)...
	Presorting SO-basis two-electron integrals.
	Sorting File: SO Ints (nn|nn) nbuckets = 1
	Constructing frozen core operators
	Starting first half-transformation.
	Sorting half-transformed integrals.
	First half integral transformation complete.
	Starting second half-transformation.
	Two-electron integral transformation complete.
	(OO|OV)...
	Starting second half-transformation.
	Two-electron integral transformation complete.
	(OO|VV)...
	Starting second half-transformation.
	Two-electron integral transformation complete.
	(OV|OO)...
	Starting first half-transformation.
	Sorting half-transformed integrals.
	First half integral transformation complete.
	Starting second half-transformation.
	Two-electron integral transformation complete.
	(OV|OV)...
	Starting second half-transformation.
	Two-electron integral transformation complete.
	(OV|VV)...
	Starting second half-transformation.
	Two-electron integral transformation complete.
	(VV|OO)...
	Starting first half-transformation.
	Sorting half-transformed integrals.
	First half integral transformation complete.
	Starting second half-transformation.
	Two-electron integral transformation complete.
	(VV|OV)...
	Starting second half-transformation.
	Two-electron integral transformation complete.
	(VV|VV)...
	Starting second half-transformation.
	Two-electron integral transformation complete.
	Frozen core energy     =      0.00000000000000

	Size of irrep 0 of <ab|cd> integrals:   5006.412 (MW) /  40051.292 (MB)
	Total:                                  5006.412 (MW) /  40051.292 (MB)

	Size of irrep 0 of <ia|bc> integrals:    188.211 (MW) /   1505.688 (MB)
	Total:                                   188.211 (MW) /   1505.688 (MB)

	Size of irrep 0 of tijab amplitudes:       7.076 (MW) /     56.605 (MB)
	Total:                                     7.076 (MW) /     56.605 (MB)

	Nuclear Rep. energy          =     33.48214531377280
	SCF energy                   =   -152.11429242514302
	One-electron energy          =   -276.28016299808883
	Two-electron energy          =     90.68372525917201
	Reference energy             =   -152.11429242514401

*** tstop() called on d-19-15-2 at Mon Sep 18 04:22:44 2023
Module time:
	user time   =     519.20 seconds =       8.65 minutes
	system time =     370.67 seconds =       6.18 minutes
	total time  =       1105 seconds =      18.42 minutes
Total time:
	user time   =   33126.96 seconds =     552.12 minutes
	system time =   16426.15 seconds =     273.77 minutes
	total time  =      56060 seconds =     934.33 minutes
            **************************
            *                        *
            *        CCENERGY        *
            *                        *
            **************************

    Nuclear Rep. energy (wfn)     =   33.482145313772797
    SCF energy          (wfn)     = -152.114292425143020
    Reference energy    (file100) = -152.114292425144015

    Input parameters:
    -----------------
    Wave function   =     CCSD_T
    Reference wfn   =     RHF
    Brueckner       =     No
    Memory (Mbytes) =     20000.0
    Maxiter         =     50
    R_Convergence   =     1.0e-07
    E_Convergence   =     1.0e-10
    Restart         =     Yes
    DIIS            =     Yes
    AO Basis        =     NONE
    ABCD            =     NEW
    Cache Level     =     2
    Cache Type      =     LOW
    Print Level     =     1
    Num. of threads =     1
    # Amps to Print =     10
    Print MP2 Amps? =     No
    Analyze T2 Amps =     No
    Print Pair Ener =     No
    Local CC        =     No
    SCS-MP2         =     False
    SCSN-MP2        =     False
    SCS-CCSD        =     False

MP2 correlation energy -0.5724025717773057
                Solving CC Amplitude Equations
                ------------------------------
  Iter             Energy              RMS        T1Diag      D1Diag    New D1Diag    D2Diag
  ----     ---------------------    ---------   ----------  ----------  ----------   --------
     0        -0.572402571777306    0.000e+00    0.000000    0.000000    0.000000    0.121547
     1        -0.568058598365000    5.187e-02    0.007905    0.019885    0.019885    0.123788
     2        -0.578587111155032    1.849e-02    0.007760    0.019605    0.019605    0.128776
     3        -0.581430009272641    7.367e-03    0.009049    0.023535    0.023535    0.131169
     4        -0.581155990898200    1.622e-03    0.009220    0.024076    0.024076    0.131411
     5        -0.581176183667125    6.463e-04    0.009318    0.024441    0.024441    0.131488
     6        -0.581194126722258    1.784e-04    0.009346    0.024550    0.024550    0.131490
     7        -0.581190205867608    6.859e-05    0.009352    0.024578    0.024578    0.131480
     8        -0.581188517661439    2.167e-05    0.009354    0.024585    0.024585    0.131478
     9        -0.581188914309891    8.827e-06    0.009355    0.024588    0.024588    0.131478
    10        -0.581188352870433    3.934e-06    0.009355    0.024588    0.024588    0.131478
    11        -0.581188374185774    1.608e-06    0.009355    0.024588    0.024588    0.131478
    12        -0.581188348023368    7.701e-07    0.009355    0.024588    0.024588    0.131478
[...]
  Nuclear repulsion =   33.482145313772797

  Charge       = 0
  Multiplicity = 1
  Electrons    = 20
  Nalpha       = 10
  Nbeta        = 10

  ==> Algorithm <==

  SCF Algorithm Type is PK.
  DIIS enabled.
  MOM disabled.
  Fractional occupation disabled.
  Guess Type is SAD.
  Energy threshold   = 1.00e-10
  Density threshold  = 1.00e-10
  Integral threshold = 1.00e-12

  ==> Primary Basis <==

  Basis Set: AUG-CC-PVTZ
    Blend: AUG-CC-PVTZ
    Number of shells: 64
    Number of basis functions: 184
    Number of Cartesian functions: 210
    Spherical Harmonics?: true
    Max angular momentum: 3

  ==> Integral Setup <==

  Using in-core PK algorithm.
   Calculation information:
      Number of atoms:                   6
      Number of AO shells:              64
      Number of primitives:            104
      Number of atomic orbitals:       210
      Number of basis functions:       184

      Integral cutoff                 1.00e-12
      Number of threads:                 1

  Performing in-core PK
  Using 289697420 doubles for integral storage.
  We computed 2034404 shell quartets total.
  Whereas there are 2164240 unique shell quartets.

  ==> DiskJK: Disk-Based J/K Matrices <==

    J tasked:                  Yes
    K tasked:                  Yes
    wK tasked:                  No
    Memory [MiB]:            14305
    Schwarz Cutoff:          1E-12

    OpenMP threads:              1

  Minimum eigenvalue in the overlap matrix is 3.1653431930E-04.
  Reciprocal condition number of the overlap matrix is 3.6480935134E-05.
    Using symmetric orthogonalization.

  ==> Pre-Iterations <==

  SCF Guess: Superposition of Atomic Densities via on-the-fly atomic UHF (no occupation information).

   -------------------------
    Irrep   Nso     Nmo    
   -------------------------
     A        184     184 
   -------------------------
    Total     184     184
   -------------------------

  ==> Iterations <==

                        Total Energy        Delta E     RMS |[F,P]|

   @RHF iter SAD:  -150.92451718866977   -1.50925e+02   0.00000e+00 
   @RHF iter   1:  -151.94670596062878   -1.02219e+00   3.55580e-03 DIIS/ADIIS
   @RHF iter   2:  -152.04960676509322   -1.02901e-01   2.45869e-03 DIIS/ADIIS
   @RHF iter   3:  -152.11326715265406   -6.36604e-02   1.73933e-04 DIIS/ADIIS
   @RHF iter   4:  -152.11414663823226   -8.79486e-04   4.30981e-05 DIIS
   @RHF iter   5:  -152.11420683449225   -6.01963e-05   1.11832e-05 DIIS
   @RHF iter   6:  -152.11421216625504   -5.33176e-06   4.56860e-06 DIIS
   @RHF iter   7:  -152.11421263120513   -4.64950e-07   1.38860e-06 DIIS
   @RHF iter   8:  -152.11421270628620   -7.50811e-08   2.32214e-07 DIIS
   @RHF iter   9:  -152.11421270878677   -2.50057e-09   4.53340e-08 DIIS
   @RHF iter  10:  -152.11421270888212   -9.53548e-11   1.48150e-08 DIIS
   @RHF iter  11:  -152.11421270889184   -9.72022e-12   3.28900e-09 DIIS
   @RHF iter  12:  -152.11421270889306   -1.22213e-12   8.55611e-10 DIIS
   @RHF iter  13:  -152.11421270889292    1.42109e-13   3.66423e-10 DIIS
   @RHF iter  14:  -152.11421270889318   -2.55795e-13   9.06566e-11 DIIS
  Energy and wave function converged.


  ==> Post-Iterations <==

    Orbital Energies [Eh]
    ---------------------

    Doubly Occupied:                                                      

       1A    -20.586108     2A    -20.564522     3A     -1.355716  
       4A     -1.335102     5A     -0.714470     6A     -0.709271  
       7A     -0.597484     8A     -0.569235     9A     -0.522474  
      10A     -0.502344  

    Virtual:                                                              

      11A      0.022574    12A      0.044408    13A      0.047003  
      14A      0.058917    15A      0.127827    16A      0.139128  
      17A      0.163275    18A      0.172268    19A      0.174130  
      20A      0.185205    21A      0.197098    22A      0.204950  
      23A      0.223939    24A      0.230357    25A      0.254212  
      26A      0.268722    27A      0.280975    28A      0.286566  
      29A      0.334685    30A      0.350807    31A      0.372040  
      32A      0.389294    33A      0.404771    34A      0.428684  
      35A      0.450450    36A      0.458026    37A      0.466898  
      38A      0.526136    39A      0.590492    40A      0.630404  
      41A      0.634879    42A      0.660648    43A      0.700424  
      44A      0.711467    45A      0.720104    46A      0.726052  
      47A      0.745041    48A      0.795109    49A      0.806329  
      50A      0.835357    51A      0.856238    52A      0.877693  
      53A      0.890285    54A      0.898834    55A      0.919775  
      56A      0.927955    57A      0.947667    58A      0.953335  
      59A      0.955732    60A      0.976409    61A      0.993011  
      62A      0.999477    63A      1.031691    64A      1.041100  
      65A      1.056602    66A      1.075806    67A      1.105120  
      68A      1.140661    69A      1.149165    70A      1.170134  
      71A      1.178166    72A      1.191346    73A      1.238841  
      74A      1.255061    75A      1.302125    76A      1.314166  
      77A      1.384944    78A      1.485282    79A      1.495528  
      80A      1.536359    81A      1.564895    82A      1.599876  
      83A      1.631220    84A      1.686695    85A      1.798611  
      86A      1.814020    87A      1.829274    88A      1.896008  
      89A      1.963718    90A      2.028346    91A      2.114330  
      92A      2.156078    93A      2.261772    94A      2.292984  
      95A      2.328793    96A      2.345481    97A      2.363453  
      98A      2.390219    99A      2.412916   100A      2.439298  
     101A      2.466971   102A      2.472390   103A      2.502639  
     104A      2.565668   105A      2.595390   106A      2.596901  
     107A      2.695873   108A      2.720267   109A      2.741359  
     110A      2.748061   111A      2.774628   112A      2.799254  
     113A      2.830409   114A      2.890909   115A      2.904211  
     116A      2.949504   117A      3.640690   118A      3.670440  
     119A      3.741964   120A      3.773533   121A      4.012927  
     122A      4.042731   123A      4.109355   124A      4.152345  
     125A      4.179596   126A      4.214102   127A      4.226793  
     128A      4.232319   129A      4.305367   130A      4.332723  
     131A      4.362178   132A      4.377364   133A      4.401609  
     134A      4.439713   135A      4.469262   136A      4.488079  
     137A      4.503748   138A      4.559275   139A      4.701789  
     140A      4.731717   141A      4.778922   142A      4.799815  
     143A      5.062000   144A      5.101725   145A      5.116885  
     146A      5.141588   147A      5.199680   148A      5.252266  
     149A      5.270818   150A      5.309654   151A      5.452125  
     152A      5.479835   153A      5.609654   154A      5.714856  
     155A      6.119946   156A      6.207585   157A      6.518340  
     158A      6.561002   159A      6.703929   160A      6.758067  
     161A      6.837979   162A      6.899178   163A      7.099261  
     164A      7.141107   165A      7.217024   166A      7.253907  
     167A      7.257292   168A      7.263596   169A      7.279921  
     170A      7.306833   171A      7.347839   172A      7.363936  
     173A      7.395279   174A      7.406517   175A      7.483647  
     176A      7.554285   177A      7.830859   178A      7.858734  
     179A      7.879520   180A      7.966403   181A      8.676299  
     182A      8.688340   183A     15.190724   184A     15.441735  

    Final Occupation by Irrep:
              A 
    DOCC [    10 ]
    NA   [    10 ]
    NB   [    10 ]

  @RHF Final Energy:  -152.11421270889318

   => Energetics <=

    Nuclear Repulsion Energy =             33.4821453137727971
    One-Electron Energy =                -276.2792669094776556
    Two-Electron Energy =                  90.6829088868116742
    Total Energy =                       -152.1142127088931773

Computation Completed


Properties will be evaluated at   0.000000,   0.000000,   0.000000 [a0]

Properties computed using the SCF density matrix


 Multipole Moments:

 ------------------------------------------------------------------------------------
     Multipole            Electronic (a.u.)      Nuclear  (a.u.)        Total (a.u.)
 ------------------------------------------------------------------------------------

 L = 1.  Multiply by 2.5417464519 to convert [e a0] to [Debye]
 Dipole X            :        -35.7040331           35.2804570           -0.4235761
 Dipole Y            :        -85.6715498           85.9520197            0.2804699
 Dipole Z            :         65.2567922          -65.8132382           -0.5564460
 Magnitude           :                                                    0.7534668

 ------------------------------------------------------------------------------------

*** tstop() called on d-19-15-2 at Mon Sep 18 09:45:24 2023
Module time:
	user time   =      18.14 seconds =       0.30 minutes
	system time =       1.11 seconds =       0.02 minutes
	total time  =         19 seconds =       0.32 minutes
Total time:
	user time   =   44606.00 seconds =     743.43 minutes
	system time =   22383.51 seconds =     373.06 minutes
	total time  =      75420 seconds =    1257.00 minutes
 MINTS: Wrapper to libmints.
   by Justin Turney

   Calculation information:
      Number of threads:                 1
      Number of atoms:                   6
      Number of AO shells:              64
      Number of SO shells:              64
      Number of primitives:            104
      Number of atomic orbitals:       210
      Number of basis functions:       184

      Number of irreps:                  1
      Integral cutoff                 1.00e-12
      Number of functions per irrep: [ 184 ]

 OEINTS: Overlap, kinetic, potential, dipole, and quadrupole integrals
         stored in file 35.

      Computing two-electron integrals...done
      Computed 129181323 non-zero two-electron integrals.
        Stored in file 33.


*** tstart() called on d-19-15-2
*** at Mon Sep 18 09:45:36 2023


	Wfn Parameters:
	--------------------
	Wavefunction         = CCSD_T
	Number of irreps     = 1
	Number of MOs        = 184
	Number of active MOs = 184
	AO-Basis             = NONE
	Semicanonical        = false
	Reference            = RHF
	Print Level          = 1

	IRREP	# MOs	# FZDC	# DOCC	# SOCC	# VIRT	# FZVR
	-----	-----	------	------	------	------	------
	 A	   184	    0	    10	    0	    174	    0
	Transforming integrals...
	IWL integrals will be deleted.
	(OO|OO)...
	Presorting SO-basis two-electron integrals.
	Sorting File: SO Ints (nn|nn) nbuckets = 1
	Constructing frozen core operators
	Starting first half-transformation.
	Sorting half-transformed integrals.
	First half integral transformation complete.
	Starting second half-transformation.
	Two-electron integral transformation complete.
	(OO|OV)...
	Starting second half-transformation.
	Two-electron integral transformation complete.
	(OO|VV)...
	Starting second half-transformation.
	Two-electron integral transformation complete.
	(OV|OO)...
	Starting first half-transformation.
	Sorting half-transformed integrals.
	First half integral transformation complete.
	Starting second half-transformation.
	Two-electron integral transformation complete.
	(OV|OV)...
	Starting second half-transformation.
	Two-electron integral transformation complete.
	(OV|VV)...
	Starting second half-transformation.
	Two-electron integral transformation complete.
	(VV|OO)...
	Starting first half-transformation.
	Sorting half-transformed integrals.
	First half integral transformation complete.
	Starting second half-transformation.
	Two-electron integral transformation complete.
	(VV|OV)...
	Starting second half-transformation.
	Two-electron integral transformation complete.
	(VV|VV)...
	Starting second half-transformation.
	Two-electron integral transformation complete.
	Frozen core energy     =      0.00000000000000

	Size of irrep 0 of <ab|cd> integrals:    916.636 (MW) /   7333.089 (MB)
	Total:                                   916.636 (MW) /   7333.089 (MB)

	Size of irrep 0 of <ia|bc> integrals:     52.680 (MW) /    421.442 (MB)
	Total:                                    52.680 (MW) /    421.442 (MB)

	Size of irrep 0 of tijab amplitudes:       3.028 (MW) /     24.221 (MB)
	Total:                                     3.028 (MW) /     24.221 (MB)

	Nuclear Rep. energy          =     33.48214531377280
	SCF energy                   =   -152.11421270889318
	One-electron energy          =   -276.27926688200955
	Two-electron energy          =     90.68290885934387
	Reference energy             =   -152.11421270889289

*** tstop() called on d-19-15-2 at Mon Sep 18 09:47:46 2023
Module time:
	user time   =      66.43 seconds =       1.11 minutes
	system time =      60.32 seconds =       1.01 minutes
	total time  =        130 seconds =       2.17 minutes
Total time:
	user time   =   44681.39 seconds =     744.69 minutes
	system time =   22446.53 seconds =     374.11 minutes
	total time  =      75562 seconds =    1259.37 minutes
            **************************
            *                        *
            *        CCENERGY        *
            *                        *
            **************************

    Nuclear Rep. energy (wfn)     =   33.482145313772797
    SCF energy          (wfn)     = -152.114212708893177
    Reference energy    (file100) = -152.114212708892893

    Input parameters:
    -----------------
    Wave function   =     CCSD_T
    Reference wfn   =     RHF
    Brueckner       =     No
    Memory (Mbytes) =     20000.0
    Maxiter         =     50
    R_Convergence   =     1.0e-07
    E_Convergence   =     1.0e-10
    Restart         =     Yes
    DIIS            =     Yes
    AO Basis        =     NONE
    ABCD            =     NEW
    Cache Level     =     2
    Cache Type      =     LOW
    Print Level     =     1
    Num. of threads =     1
    # Amps to Print =     10
    Print MP2 Amps? =     No
    Analyze T2 Amps =     No
    Print Pair Ener =     No
    Local CC        =     No
    SCS-MP2         =     False
    SCSN-MP2        =     False
    SCS-CCSD        =     False

MP2 correlation energy -0.5716405989279101
                Solving CC Amplitude Equations
                ------------------------------
  Iter             Energy              RMS        T1Diag      D1Diag    New D1Diag    D2Diag
  ----     ---------------------    ---------   ----------  ----------  ----------   --------
     0        -0.571640598927910    0.000e+00    0.000000    0.000000    0.000000    0.121537
     1        -0.567341393770767    5.184e-02    0.007906    0.019894    0.019894    0.123786
     2        -0.577862339213355    1.846e-02    0.007765    0.019619    0.019619    0.128779
     3        -0.580701489901709    7.358e-03    0.009058    0.023563    0.023563    0.131171
     4        -0.580422402190220    1.607e-03    0.009229    0.024102    0.024102    0.131410
     5        -0.580444468038328    6.391e-04    0.009327    0.024466    0.024466    0.131485
     6        -0.580461847571095    1.756e-04    0.009354    0.024573    0.024573    0.131487
     7        -0.580457834800235    6.798e-05    0.009360    0.024601    0.024601    0.131478
     8        -0.580456213995784    2.140e-05    0.009362    0.024608    0.024608    0.131476
     9        -0.580456623760504    8.737e-06    0.009363    0.024610    0.024610    0.131476
    10        -0.580456064647991    3.906e-06    0.009363    0.024611    0.024611    0.131475
    11        -0.580456088593425    1.579e-06    0.009363    0.024610    0.024610    0.131475
    12        -0.580456062812666    7.433e-07    0.009363    0.024610    0.024610    0.131475
    13        -0.580456050018396    2.480e-07    0.009363    0.024610    0.024610    0.131475
    14        -0.580456050759567    8.912e-08    0.009363    0.024610    0.024610    0.131475
    15        -0.580456051334183    3.891e-08    0.009363    0.024610    0.024610    0.131475
    16        -0.580456050952844    1.494e-08    0.009363    0.024610    0.024610    0.131475
    17        -0.580456050909486    6.141e-09    0.009363    0.024610    0.024610    0.131475
    18        -0.580456050942091    2.379e-09    0.009363    0.024610    0.024610    0.131475

    Iterations converged.


    Largest TIA Amplitudes:
              9   6         0.0112788811
              8   6        -0.0090643298
              8  18        -0.0083080482
              7  18         0.0081787399
              8  14         0.0079634919
              9  21        -0.0076336393
              7   5         0.0070273365
              6   4         0.0069361463
              8   3        -0.0061060710
              9   1        -0.0052932117

    Largest TIjAb Amplitudes:
      7   7  44  44        -0.0124660993
      6   6  28  28        -0.0113387160
      4   4  24  24        -0.0101977538
      7   7  18  18        -0.0095020583
      5   5  26  26        -0.0093725086
      4   4  28  28        -0.0093489934
      4   4  26  26        -0.0092681974
      5   5  25  25        -0.0090417618
      7   7  18  44        -0.0087043499
      7   7  44  18        -0.0087043499

    SCF energy       (wfn)                    = -152.114212708893177
    Reference energy (file100)                = -152.114212708892893

    Opposite-spin MP2 correlation energy      =   -0.433735836789095
    Same-spin MP2 correlation energy          =   -0.137904762138815
    Singles MP2 correlation energy            =   -0.000000000000000
    MP2 correlation energy                    =   -0.571640598927910
      * MP2 total energy                      = -152.685853307820793

    Opposite-spin CCSD correlation energy     =   -0.457878829024022
    Same-spin CCSD correlation energy         =   -0.122577221918070
    Singles CCSD correlation energy           =    0.000000000000000
    CCSD correlation energy                   =   -0.580456050942091
      * CCSD total energy                     = -152.694668759834997

            **************************
            *                        *
            *        CCTRIPLES       *
            *                        *
            **************************


    Wave function   =    CCSD_T
    Reference wfn   =      RHF

    Nuclear Rep. energy (wfn)                =   33.482145313772797
    SCF energy          (wfn)                = -152.114212708893177
    Reference energy    (file100)            = -152.114212708892893
    CCSD energy         (file100)            =   -0.580456050942091
    Total CCSD energy   (file100)            = -152.694668759834997

    Number of ijk index combinations:              220
    Memory available in words               :      2500000000
    Approx. words needed per explicit thread:        21072096
    Number of threads for explicit ijk threading:    1

    MKL num_threads set to 1 for explicit threading.

    (T) energy                                =   -0.018226339354766
      * CCSD(T) total energy                  = -152.712895099189751


    Psi4 stopped on: Monday, 18 September 2023 09:54AM
    Psi4 wall time for execution: 0:09:31.20


  //>>>>>>>>>>>>>>>>>>>>>>>>>>>>>>>>>>>//
  //          ManyBody Results         //
  //<<<<<<<<<<<<<<<<<<<<<<<<<<<<<<<<<<<//


   ==> N-Body: Counterpoise Corrected (CP) energies <==

        n-Body     Total Energy            Interaction Energy                          N-body Contribution to Interaction Energy
                   [Eh]                    [Eh]                  [kcal/mol]            [Eh]                  [kcal/mol]
             1  N/A                         0.000000000000        0.000000000000        0.000000000000        0.000000000000
  FULL/RTN   2  N/A                        -0.000243647798       -0.152891301448       -0.000243647798       -0.152891301448


