Scratch directory: /home/gridsan/kfisher/scratch/

  //>>>>>>>>>>>>>>>>>>>>>>>>>>>>>>>>>>>>>>>>//
  // ManyBody Setup: N-Body Levels [1, 2, 3]//
  //<<<<<<<<<<<<<<<<<<<<<<<<<<<<<<<<<<<<<<<<//

        Number of 1-body computations:     3
        Number of 2-body computations:     3
        Number of 3-body computations:     1

    -----------------------------------------------------------------------
          Psi4: An Open-Source Ab Initio Electronic Structure Package
                               Psi4 1.7 release

                         Git: Rev {HEAD} 6ce35a5 


    D. G. A. Smith, L. A. Burns, A. C. Simmonett, R. M. Parrish,
    M. C. Schieber, R. Galvelis, P. Kraus, H. Kruse, R. Di Remigio,
    A. Alenaizan, A. M. James, S. Lehtola, J. P. Misiewicz, M. Scheurer,
    R. A. Shaw, J. B. Schriber, Y. Xie, Z. L. Glick, D. A. Sirianni,
    J. S. O'Brien, J. M. Waldrop, A. Kumar, E. G. Hohenstein,
    B. P. Pritchard, B. R. Brooks, H. F. Schaefer III, A. Yu. Sokolov,
    K. Patkowski, A. E. DePrince III, U. Bozkaya, R. A. King,
    F. A. Evangelista, J. M. Turney, T. D. Crawford, C. D. Sherrill,
    J. Chem. Phys. 152(18) 184108 (2020). https://doi.org/10.1063/5.0006002

                            Additional Code Authors
    E. T. Seidl, C. L. Janssen, E. F. Valeev, M. L. Leininger,
    J. F. Gonthier, R. M. Richard, H. R. McAlexander, M. Saitow, X. Wang,
    P. Verma, M. H. Lechner, A. Jiang, S. Behnle, A. G. Heide,
    M. F. Herbst, and D. L. Poole

             Previous Authors, Complete List of Code Contributors,
                       and Citations for Specific Modules
    https://github.com/psi4/psi4/blob/master/codemeta.json
    https://github.com/psi4/psi4/graphs/contributors
    http://psicode.org/psi4manual/master/introduction.html#citing-psifour

    -----------------------------------------------------------------------


    Psi4 started on: Sunday, 17 September 2023 12:48PM

    Process ID: 258105
    Host:       d-19-15-2
    PSIDATADIR: /home/gridsan/kfisher/.conda/envs/p4env/share/psi4
    Memory:     18.6 GiB
    Threads:    1
    
  ==> Input QCSchema <==

--------------------------------------------------------------------------
{'driver': 'energy',
 'extras': {'psiapi': True, 'wfn_qcvars_only': True},
 'id': None,
 'keywords': {'D_CONVERGENCE': 1e-10, 'E_CONVERGENCE': 1e-10, 'function_kwargs': {'dft_functional': 'scan-d3zero2b'}},
 'model': {'basis': 'aug-cc-pvtz', 'method': 'scf'},
 'molecule': {'atom_labels': ['', '', '', '', '', '', '', '', ''],
              'atomic_numbers': [1, 1, 8, 1, 1, 8, 1, 1, 8],
              'fix_com': True,
              'fix_orientation': True,
              'fix_symmetry': 'c1',
              'fragment_charges': [0.0, 0.0, 0.0],
              'fragment_multiplicities': [1, 1, 1],
              'fragments': [[0, 1, 2], [3, 4, 5], [6, 7, 8]],
              'geometry': [8.089863459123253, -2.7362000872387267, -3.439307482073281, 5.756813575064834,
                           -1.0147792821994315, -3.025940191136765, 6.371891404262917, -2.778193108767119,
                           -2.8393977285937986, 4.400977031968829, 2.8541305625911826, -1.5559415511441226,
                           2.926392121156006, 2.534748611531699, -4.168538488660688, 3.7527700361201193,
                           1.6297645148173667, -2.764762125994824, -1.702870818754792, 5.990171866975498,
                           -3.507360450481358, 0.5316601590680515, 6.332357218779926, -5.316333344057006,
                           -0.11223272431706587, 6.900311911347789, -3.643370918333655],
              'mass_numbers': [1, 1, 16, 1, 1, 16, 1, 1, 16],
              'masses': [1.00782503223, 1.00782503223, 15.99491461957, 1.00782503223, 1.00782503223, 15.99491461957,
                         1.00782503223, 1.00782503223, 15.99491461957],
              'molecular_charge': 0.0,
              'molecular_multiplicity': 1,
              'name': 'H6O3',
              'provenance': {'creator': 'QCElemental',
                             'routine': 'qcelemental.molparse.from_string',
                             'version': 'v0.25.1'},
              'real': [True, True, True, False, False, False, False, False, False],
              'schema_name': 'qcschema_molecule',
              'schema_version': 2,
              'symbols': ['H', 'H', 'O', 'H', 'H', 'O', 'H', 'H', 'O'],
              'validated': True},
 'protocols': {'stdout': True},
 'provenance': {'creator': 'QCElemental', 'routine': 'qcelemental.models.results', 'version': 'v0.25.1'},
 'schema_name': 'qcschema_input',
 'schema_version': 1}
--------------------------------------------------------------------------

Scratch directory: /home/gridsan/kfisher/scratch/

*** tstart() called on d-19-15-2
*** at Mon Sep 18 02:53:28 2023

   => Loading Basis Set <=

    Name: AUG-CC-PVTZ
    Role: ORBITAL
    Keyword: BASIS
    atoms 1-2, 4-5, 7-8 entry H          line    40 file /home/gridsan/kfisher/.conda/envs/p4env/share/psi4/basis/aug-cc-pvtz.gbs 
    atoms 3, 6, 9       entry O          line   331 file /home/gridsan/kfisher/.conda/envs/p4env/share/psi4/basis/aug-cc-pvtz.gbs 

   => SCAN-D3: Empirical Dispersion <=

    Grimme's -D3 (zero-damping) Dispersion Correction
    Grimme S.; Antony J.; Ehrlich S.; Krieg H. (2010), J. Chem. Phys., 132: 154104
    Parametrisation from:    J.G. Brandenburg, J. E. Bates, J. Sun, J.P. Perdew, Phys. Rev. B 94, 115144, 2016

        s6 =       1.000000
        s8 =       0.000000
       sr6 =       1.324000
    alpha6 =      14.000000
       sr8 =       1.000000


         ---------------------------------------------------------
                                   SCF
               by Justin Turney, Rob Parrish, Andy Simmonett
                          and Daniel G. A. Smith
                              RKS Reference
                        1 Threads,  19073 MiB Core
         ---------------------------------------------------------

  ==> Geometry <==

    Molecular point group: c1
    Full point group: C1

    Geometry (in Bohr), charge = 0, multiplicity = 1:

       Center              X                  Y                   Z               Mass       
    ------------   -----------------  -----------------  -----------------  -----------------
         H            8.089863459123    -2.736200087239    -3.439307482073     1.007825032230
         H            5.756813575065    -1.014779282199    -3.025940191137     1.007825032230
         O            6.371891404263    -2.778193108767    -2.839397728594    15.994914619570
      Gh(H)           4.400977031969     2.854130562591    -1.555941551144     1.007825032230
      Gh(H)           2.926392121156     2.534748611532    -4.168538488661     1.007825032230
      Gh(O)           3.752770036120     1.629764514817    -2.764762125995    15.994914619570
      Gh(H)          -1.702870818755     5.990171866975    -3.507360450481     1.007825032230
      Gh(H)           0.531660159068     6.332357218780    -5.316333344057     1.007825032230
      Gh(O)          -0.112232724317     6.900311911348    -3.643370918334    15.994914619570

  Running in c1 symmetry.

  Rotational constants: A =      0.04893  B =      0.04430  C =      0.02344 [cm^-1]
  Rotational constants: A =   1466.73574  B =   1328.18854  C =    702.85990 [MHz]
  Nuclear repulsion =    8.998951035477010

  Charge       = 0
  Multiplicity = 1
  Electrons    = 10
  Nalpha       = 5
  Nbeta        = 5

  ==> Algorithm <==

  SCF Algorithm Type is DF.
  DIIS enabled.
  MOM disabled.
  Fractional occupation disabled.
  Guess Type is SAD.
  Energy threshold   = 1.00e-10
  Density threshold  = 1.00e-10
  Integral threshold = 1.00e-12

  ==> Primary Basis <==

  Basis Set: AUG-CC-PVTZ
    Blend: AUG-CC-PVTZ
    Number of shells: 96
    Number of basis functions: 276
    Number of Cartesian functions: 315
    Spherical Harmonics?: true
    Max angular momentum: 3

  ==> DFT Potential <==

   => Composite Functional: SCAN-D3ZERO2B <= 

    SCAN Meta-GGA XC Functional
(10.1103/PhysRevLett.115.036402)
    J. Sun, A. Ruzsinszky, J. P. Perdew  Phys. Rev. Lett. 115, 036402, 2015


    Deriv               =              1
    GGA                 =           TRUE
    Meta                =           TRUE

    Exchange Hybrid     =          FALSE
    MP2 Hybrid          =          FALSE

   => Exchange Functionals <=

    1.0000   XC_MGGA_X_SCAN

   => Correlation Functionals <=

    1.0000   XC_MGGA_C_SCAN

   => LibXC Density Thresholds  <==

    XC_MGGA_C_SCAN:  1.00E-15 
    XC_MGGA_X_SCAN:  1.00E-15 

   => Molecular Quadrature <=

    Radial Scheme          =       TREUTLER
    Pruning Scheme         =           NONE
    Nuclear Scheme         =       TREUTLER

    Blocking Scheme        =         OCTREE
    BS radius alpha        =              1
    Pruning alpha          =              1
    Radial Points          =             75
    Spherical Points       =            302
    Total Points           =         198025
    Total Blocks           =           1504
    Max Points             =            256
    Max Functions          =            249
    Weights Tolerance      =       1.00E-15

   => Loading Basis Set <=

    Name: (AUG-CC-PVTZ AUX)
    Role: JKFIT
    Keyword: DF_BASIS_SCF
    atoms 1-2, 4-5, 7-8 entry H          line    70 file /home/gridsan/kfisher/.conda/envs/p4env/share/psi4/basis/aug-cc-pvtz-jkfit.gbs 
    atoms 3, 6, 9       entry O          line   286 file /home/gridsan/kfisher/.conda/envs/p4env/share/psi4/basis/aug-cc-pvtz-jkfit.gbs 

  ==> Integral Setup <==

  DFHelper Memory: AOs need 0.318 GiB; user supplied 11.185 GiB. Using in-core AOs.

  ==> MemDFJK: Density-Fitted J/K Matrices <==

    J tasked:                   Yes
    K tasked:                    No
    wK tasked:                   No
    OpenMP threads:               1
    Memory [MiB]:             11453
    Algorithm:                 Core
    Schwarz Cutoff:           1E-12
    Mask sparsity (%):      10.1292
    Fitting Condition:        1E-10

   => Auxiliary Basis Set <=

  Basis Set: (AUG-CC-PVTZ AUX)
    Blend: AUG-CC-PVTZ-JKFIT
    Number of shells: 174
    Number of basis functions: 588
    Number of Cartesian functions: 723
    Spherical Harmonics?: true
    Max angular momentum: 4

  Cached 100.0% of DFT collocation blocks in 2.785 [GiB].

  Minimum eigenvalue in the overlap matrix is 2.0435860321E-04.
  Reciprocal condition number of the overlap matrix is 2.0912875399E-05.
    Using symmetric orthogonalization.

  ==> Pre-Iterations <==

  SCF Guess: Superposition of Atomic Densities via on-the-fly atomic UHF (no occupation information).

   -------------------------
    Irrep   Nso     Nmo    
   -------------------------
     A        276     276 
   -------------------------
    Total     276     276
   -------------------------

  ==> Iterations <==

                           Total Energy        Delta E     RMS |[F,P]|

   @DF-RKS iter SAD:   -76.05460918393349   -7.60546e+01   0.00000e+00 
   @DF-RKS iter   1:   -76.24347748430758   -1.88868e-01   2.63747e-03 DIIS/ADIIS
   @DF-RKS iter   2:   -75.65039626151166    5.93081e-01   5.03743e-03 DIIS/ADIIS
   @DF-RKS iter   3:   -76.42858485151564   -7.78189e-01   2.26578e-04 DIIS/ADIIS
   @DF-RKS iter   4:   -76.43040283598953   -1.81798e-03   2.82149e-05 DIIS
   @DF-RKS iter   5:   -76.43042233248940   -1.94965e-05   8.01995e-06 DIIS
   @DF-RKS iter   6:   -76.43042401695237   -1.68446e-06   5.01264e-07 DIIS
   @DF-RKS iter   7:   -76.43042402295994   -6.00757e-09   1.58148e-07 DIIS
   @DF-RKS iter   8:   -76.43042402366497   -7.05029e-10   4.21033e-08 DIIS
   @DF-RKS iter   9:   -76.43042402372058   -5.56071e-11   2.02185e-09 DIIS
   @DF-RKS iter  10:   -76.43042402372095   -3.69482e-13   1.74778e-10 DIIS
   @DF-RKS iter  11:   -76.43042402372080    1.42109e-13   2.21110e-11 DIIS
  Energy and wave function converged.


  ==> Post-Iterations <==

   Electrons on quadrature grid:
      Ntotal   =   10.0000008817 ; deviation = 8.817e-07 

    Orbital Energies [Eh]
    ---------------------

    Doubly Occupied:                                                      

       1A    -18.970776     2A     -0.974368     3A     -0.494302  
       4A     -0.356122     5A     -0.278269  

    Virtual:                                                              

       6A     -0.012332     7A      0.024692     8A      0.042636  
       9A      0.044531    10A      0.048674    11A      0.072564  
      12A      0.080588    13A      0.103425    14A      0.116193  
      15A      0.117518    16A      0.131355    17A      0.143332  
      18A      0.147234    19A      0.157721    20A      0.165586  
      21A      0.182870    22A      0.201730    23A      0.207126  
      24A      0.223249    25A      0.235980    26A      0.249220  
      27A      0.251375    28A      0.259580    29A      0.266767  
      30A      0.296048    31A      0.304113    32A      0.306450  
      33A      0.323422    34A      0.327504    35A      0.334858  
      36A      0.350601    37A      0.354544    38A      0.359039  
      39A      0.373021    40A      0.384895    41A      0.404649  
      42A      0.410951    43A      0.414310    44A      0.432799  
      45A      0.454515    46A      0.482992    47A      0.539925  
      48A      0.576181    49A      0.597160    50A      0.618737  
      51A      0.641577    52A      0.644392    53A      0.653077  
      54A      0.691233    55A      0.709404    56A      0.727349  
      57A      0.735579    58A      0.750102    59A      0.764310  
      60A      0.768165    61A      0.781155    62A      0.790205  
      63A      0.792683    64A      0.816586    65A      0.820195  
      66A      0.826346    67A      0.844539    68A      0.852272  
      69A      0.854961    70A      0.869925    71A      0.879614  
      72A      0.889481    73A      0.893549    74A      0.906821  
      75A      0.918666    76A      0.935477    77A      0.948826  
      78A      0.951125    79A      0.969964    80A      0.988630  
      81A      0.998348    82A      1.002092    83A      1.018076  
      84A      1.021535    85A      1.054251    86A      1.060224  
      87A      1.071675    88A      1.092584    89A      1.109935  
      90A      1.128503    91A      1.147005    92A      1.168449  
      93A      1.178954    94A      1.197746    95A      1.215851  
      96A      1.221698    97A      1.254207    98A      1.270802  
      99A      1.314155   100A      1.359626   101A      1.372522  
     102A      1.393459   103A      1.407130   104A      1.415503  
     105A      1.452797   106A      1.456590   107A      1.497593  
     108A      1.510426   109A      1.549898   110A      1.580453  
     111A      1.609680   112A      1.682800   113A      1.705982  
     114A      1.718497   115A      1.744474   116A      1.788486  
     117A      1.797926   118A      1.806453   119A      1.817183  
     120A      1.841324   121A      1.854788   122A      1.885234  
     123A      1.923136   124A      1.963683   125A      2.012828  
     126A      2.043351   127A      2.060469   128A      2.101423  
     129A      2.192538   130A      2.250129   131A      2.274746  
     132A      2.314058   133A      2.346543   134A      2.361749  
     135A      2.393508   136A      2.436909   137A      2.457229  
     138A      2.499194   139A      2.518420   140A      2.532015  
     141A      2.536424   142A      2.552723   143A      2.574705  
     144A      2.583212   145A      2.594603   146A      2.647478  
     147A      2.683636   148A      2.706652   149A      2.732038  
     150A      2.771337   151A      2.796459   152A      2.833773  
     153A      2.851415   154A      2.869653   155A      2.898076  
     156A      3.002079   157A      3.038245   158A      3.129353  
     159A      3.139258   160A      3.187249   161A      3.203689  
     162A      3.230632   163A      3.274110   164A      3.282030  
     165A      3.309847   166A      3.314253   167A      3.422001  
     168A      3.494970   169A      3.531115   170A      3.609211  
     171A      3.680808   172A      3.691547   173A      3.742641  
     174A      3.880130   175A      3.918552   176A      3.957987  
     177A      4.102040   178A      4.195102   179A      4.215280  
     180A      4.265568   181A      4.277555   182A      4.364923  
     183A      4.373230   184A      4.392494   185A      4.444852  
     186A      4.459912   187A      4.493898   188A      4.522672  
     189A      4.549352   190A      4.594348   191A      4.621207  
     192A      4.636247   193A      4.651917   194A      4.675946  
     195A      4.690119   196A      4.774172   197A      4.852842  
     198A      4.874385   199A      4.959405   200A      4.967797  
     201A      4.992838   202A      5.011114   203A      5.034971  
     204A      5.105865   205A      5.171099   206A      5.186801  
     207A      5.211168   208A      5.240831   209A      5.292890  
     210A      5.313519   211A      5.474440   212A      5.497354  
     213A      5.534928   214A      5.541327   215A      5.598331  
     216A      5.609952   217A      5.798975   218A      5.833986  
     219A      5.912177   220A      6.031169   221A      6.099342  
     222A      6.268644   223A      6.290201   224A      6.323637  
     225A      6.384702   226A      6.490859   227A      6.496255  
     228A      6.659942   229A      6.793197   230A      6.851791  
     231A      6.938846   232A      6.954837   233A      6.973227  
     234A      7.056153   235A      7.098987   236A      7.100151  
     237A      7.141387   238A      7.367052   239A      7.655713  
     240A      7.669740   241A      7.709305   242A      7.827695  
     243A      7.992159   244A      8.045481   245A      8.104927  
     246A      8.112715   247A      8.261269   248A      8.311029  
     249A      8.329135   250A      8.474389   251A      8.533719  
     252A      8.577582   253A      8.727931   254A      8.846188  
     255A      8.913082   256A      9.710768   257A      9.862018  
     258A      9.992075   259A     10.048006   260A     10.157397  
     261A     10.218645   262A     10.232421   263A     10.722131  
     264A     11.089108   265A     11.225289   266A     11.641675  
     267A     11.862583   268A     11.893501   269A     12.419961  
     270A     13.392973   271A     13.559226   272A     13.811930  
     273A     14.031018   274A     15.527777   275A     63.625113  
     276A     65.808424  

    Final Occupation by Irrep:
              A 
    DOCC [     5 ]
    NA   [     5 ]
    NB   [     5 ]

  @DF-RKS Final Energy:   -76.43042402372080

   => Energetics <=

    Nuclear Repulsion Energy =              8.9989510354770097
    One-Electron Energy =                -122.7068820367224475
    Two-Electron Energy =                  46.5579750062027671
    DFT Exchange-Correlation Energy =      -9.2804678786781185
    Empirical Dispersion Energy =          -0.0000001500000000
    VV10 Nonlocal Energy =                  0.0000000000000000
    Total Energy =                        -76.4304240237208035

Computation Completed


Properties will be evaluated at   0.000000,   0.000000,   0.000000 [a0]

Properties computed using the SCF density matrix


 Multipole Moments:

 ------------------------------------------------------------------------------------
     Multipole            Electronic (a.u.)      Nuclear  (a.u.)        Total (a.u.)
 ------------------------------------------------------------------------------------

 L = 1.  Multiply by 2.5417464519 to convert [e a0] to [Debye]
 Dipole X            :        -64.4634485           64.8218083            0.3583598
 Dipole Y            :         26.5526373          -25.9765242            0.5761131
 Dipole Z            :         28.9271566          -29.1804295           -0.2532729
 Magnitude           :                                                    0.7242066

 ------------------------------------------------------------------------------------

*** tstop() called on d-19-15-2 at Mon Sep 18 02:54:18 2023
Module time:
	user time   =      48.27 seconds =       0.80 minutes
	system time =       0.23 seconds =       0.00 minutes
	total time  =         50 seconds =       0.83 minutes
Total time:
	user time   =   30180.87 seconds =     503.01 minutes
	system time =   14812.41 seconds =     246.87 minutes
	total time  =      50754 seconds =     845.90 minutes

    Psi4 stopped on: Monday, 18 September 2023 02:54AM
    Psi4 wall time for execution: 0:00:49.84


    -----------------------------------------------------------------------
          Psi4: An Open-Source Ab Initio Electronic Structure Package
                               Psi4 1.7 release

                         Git: Rev {HEAD} 6ce35a5 


    D. G. A. Smith, L. A. Burns, A. C. Simmonett, R. M. Parrish,
    M. C. Schieber, R. Galvelis, P. Kraus, H. Kruse, R. Di Remigio,
    A. Alenaizan, A. M. James, S. Lehtola, J. P. Misiewicz, M. Scheurer,
    R. A. Shaw, J. B. Schriber, Y. Xie, Z. L. Glick, D. A. Sirianni,
    J. S. O'Brien, J. M. Waldrop, A. Kumar, E. G. Hohenstein,
    B. P. Pritchard, B. R. Brooks, H. F. Schaefer III, A. Yu. Sokolov,
    K. Patkowski, A. E. DePrince III, U. Bozkaya, R. A. King,
    F. A. Evangelista, J. M. Turney, T. D. Crawford, C. D. Sherrill,
    J. Chem. Phys. 152(18) 184108 (2020). https://doi.org/10.1063/5.0006002

                            Additional Code Authors
    E. T. Seidl, C. L. Janssen, E. F. Valeev, M. L. Leininger,
    J. F. Gonthier, R. M. Richard, H. R. McAlexander, M. Saitow, X. Wang,
    P. Verma, M. H. Lechner, A. Jiang, S. Behnle, A. G. Heide,
    M. F. Herbst, and D. L. Poole

             Previous Authors, Complete List of Code Contributors,
                       and Citations for Specific Modules
    https://github.com/psi4/psi4/blob/master/codemeta.json
    https://github.com/psi4/psi4/graphs/contributors
    http://psicode.org/psi4manual/master/introduction.html#citing-psifour

    -----------------------------------------------------------------------


    Psi4 started on: Sunday, 17 September 2023 12:48PM

    Process ID: 258105
    Host:       d-19-15-2
    PSIDATADIR: /home/gridsan/kfisher/.conda/envs/p4env/share/psi4
    Memory:     18.6 GiB
    Threads:    1
    
  ==> Input QCSchema <==

--------------------------------------------------------------------------
{'driver': 'energy',
 'extras': {'psiapi': True, 'wfn_qcvars_only': True},
 'id': None,
 'keywords': {'D_CONVERGENCE': 1e-10, 'E_CONVERGENCE': 1e-10, 'function_kwargs': {'dft_functional': 'scan-d3zero2b'}},
 'model': {'basis': 'aug-cc-pvtz', 'method': 'scf'},
 'molecule': {'atom_labels': ['', '', '', '', '', '', '', '', ''],
              'atomic_numbers': [1, 1, 8, 1, 1, 8, 1, 1, 8],
              'fix_com': True,
              'fix_orientation': True,
              'fix_symmetry': 'c1',
              'fragment_charges': [0.0, 0.0, 0.0],
              'fragment_multiplicities': [1, 1, 1],
              'fragments': [[0, 1, 2], [3, 4, 5], [6, 7, 8]],
              'geometry': [8.089863459123253, -2.7362000872387267, -3.439307482073281, 5.756813575064834,
                           -1.0147792821994315, -3.025940191136765, 6.371891404262917, -2.778193108767119,
                           -2.8393977285937986, 4.400977031968829, 2.8541305625911826, -1.5559415511441226,
                           2.926392121156006, 2.534748611531699, -4.168538488660688, 3.7527700361201193,
                           1.6297645148173667, -2.764762125994824, -1.702870818754792, 5.990171866975498,
                           -3.507360450481358, 0.5316601590680515, 6.332357218779926, -5.316333344057006,
                           -0.11223272431706587, 6.900311911347789, -3.643370918333655],
              'mass_numbers': [1, 1, 16, 1, 1, 16, 1, 1, 16],
              'masses': [1.00782503223, 1.00782503223, 15.99491461957, 1.00782503223, 1.00782503223, 15.99491461957,
                         1.00782503223, 1.00782503223, 15.99491461957],
              'molecular_charge': 0.0,
              'molecular_multiplicity': 1,
              'name': 'H6O3',
              'provenance': {'creator': 'QCElemental',
                             'routine': 'qcelemental.molparse.from_string',
                             'version': 'v0.25.1'},
              'real': [False, False, False, True, True, True, False, False, False],
              'schema_name': 'qcschema_molecule',
              'schema_version': 2,
              'symbols': ['H', 'H', 'O', 'H', 'H', 'O', 'H', 'H', 'O'],
              'validated': True},
 'protocols': {'stdout': True},
 'provenance': {'creator': 'QCElemental', 'routine': 'qcelemental.models.results', 'version': 'v0.25.1'},
 'schema_name': 'qcschema_input',
 'schema_version': 1}
--------------------------------------------------------------------------

Scratch directory: /home/gridsan/kfisher/scratch/

*** tstart() called on d-19-15-2
*** at Mon Sep 18 02:54:18 2023

   => Loading Basis Set <=

    Name: AUG-CC-PVTZ
    Role: ORBITAL
    Keyword: BASIS
    atoms 1-2, 4-5, 7-8 entry H          line    40 file /home/gridsan/kfisher/.conda/envs/p4env/share/psi4/basis/aug-cc-pvtz.gbs 
    atoms 3, 6, 9       entry O          line   331 file /home/gridsan/kfisher/.conda/envs/p4env/share/psi4/basis/aug-cc-pvtz.gbs 

   => SCAN-D3: Empirical Dispersion <=

    Grimme's -D3 (zero-damping) Dispersion Correction
    Grimme S.; Antony J.; Ehrlich S.; Krieg H. (2010), J. Chem. Phys., 132: 154104
    Parametrisation from:    J.G. Brandenburg, J. E. Bates, J. Sun, J.P. Perdew, Phys. Rev. B 94, 115144, 2016

        s6 =       1.000000
        s8 =       0.000000
       sr6 =       1.324000
    alpha6 =      14.000000
       sr8 =       1.000000


         ---------------------------------------------------------
                                   SCF
               by Justin Turney, Rob Parrish, Andy Simmonett
                          and Daniel G. A. Smith
                              RKS Reference
                        1 Threads,  19073 MiB Core
         ---------------------------------------------------------

  ==> Geometry <==

    Molecular point group: c1
    Full point group: C1

    Geometry (in Bohr), charge = 0, multiplicity = 1:

       Center              X                  Y                   Z               Mass       
    ------------   -----------------  -----------------  -----------------  -----------------
      Gh(H)           8.089863459123    -2.736200087239    -3.439307482073     1.007825032230
      Gh(H)           5.756813575065    -1.014779282199    -3.025940191137     1.007825032230
      Gh(O)           6.371891404263    -2.778193108767    -2.839397728594    15.994914619570
         H            4.400977031969     2.854130562591    -1.555941551144     1.007825032230
         H            2.926392121156     2.534748611532    -4.168538488661     1.007825032230
         O            3.752770036120     1.629764514817    -2.764762125995    15.994914619570
      Gh(H)          -1.702870818755     5.990171866975    -3.507360450481     1.007825032230
      Gh(H)           0.531660159068     6.332357218780    -5.316333344057     1.007825032230
      Gh(O)          -0.112232724317     6.900311911348    -3.643370918334    15.994914619570

  Running in c1 symmetry.

  Rotational constants: A =      0.04893  B =      0.04430  C =      0.02344 [cm^-1]
  Rotational constants: A =   1466.73574  B =   1328.18854  C =    702.85990 [MHz]
  Nuclear repulsion =    8.975657196283546

  Charge       = 0
  Multiplicity = 1
  Electrons    = 10
  Nalpha       = 5
  Nbeta        = 5

  ==> Algorithm <==

  SCF Algorithm Type is DF.
  DIIS enabled.
  MOM disabled.
  Fractional occupation disabled.
  Guess Type is SAD.
  Energy threshold   = 1.00e-10
  Density threshold  = 1.00e-10
  Integral threshold = 1.00e-12

  ==> Primary Basis <==

  Basis Set: AUG-CC-PVTZ
    Blend: AUG-CC-PVTZ
    Number of shells: 96
    Number of basis functions: 276
    Number of Cartesian functions: 315
    Spherical Harmonics?: true
    Max angular momentum: 3

  ==> DFT Potential <==

   => Composite Functional: SCAN-D3ZERO2B <= 

    SCAN Meta-GGA XC Functional
(10.1103/PhysRevLett.115.036402)
    J. Sun, A. Ruzsinszky, J. P. Perdew  Phys. Rev. Lett. 115, 036402, 2015


    Deriv               =              1
    GGA                 =           TRUE
    Meta                =           TRUE

    Exchange Hybrid     =          FALSE
    MP2 Hybrid          =          FALSE

   => Exchange Functionals <=

    1.0000   XC_MGGA_X_SCAN

   => Correlation Functionals <=

    1.0000   XC_MGGA_C_SCAN

   => LibXC Density Thresholds  <==

    XC_MGGA_C_SCAN:  1.00E-15 
    XC_MGGA_X_SCAN:  1.00E-15 

   => Molecular Quadrature <=

    Radial Scheme          =       TREUTLER
    Pruning Scheme         =           NONE
    Nuclear Scheme         =       TREUTLER

    Blocking Scheme        =         OCTREE
    BS radius alpha        =              1
    Pruning alpha          =              1
    Radial Points          =             75
    Spherical Points       =            302
    Total Points           =         198025
    Total Blocks           =           1504
    Max Points             =            256
    Max Functions          =            249
    Weights Tolerance      =       1.00E-15

   => Loading Basis Set <=

    Name: (AUG-CC-PVTZ AUX)
    Role: JKFIT
    Keyword: DF_BASIS_SCF
    atoms 1-2, 4-5, 7-8 entry H          line    70 file /home/gridsan/kfisher/.conda/envs/p4env/share/psi4/basis/aug-cc-pvtz-jkfit.gbs 
    atoms 3, 6, 9       entry O          line   286 file /home/gridsan/kfisher/.conda/envs/p4env/share/psi4/basis/aug-cc-pvtz-jkfit.gbs 

  ==> Integral Setup <==

  DFHelper Memory: AOs need 0.318 GiB; user supplied 11.185 GiB. Using in-core AOs.

  ==> MemDFJK: Density-Fitted J/K Matrices <==

    J tasked:                   Yes
    K tasked:                    No
    wK tasked:                   No
    OpenMP threads:               1
    Memory [MiB]:             11453
    Algorithm:                 Core
    Schwarz Cutoff:           1E-12
    Mask sparsity (%):      10.1292
    Fitting Condition:        1E-10

   => Auxiliary Basis Set <=

  Basis Set: (AUG-CC-PVTZ AUX)
    Blend: AUG-CC-PVTZ-JKFIT
    Number of shells: 174
    Number of basis functions: 588
    Number of Cartesian functions: 723
    Spherical Harmonics?: true
    Max angular momentum: 4

  Cached 100.0% of DFT collocation blocks in 2.785 [GiB].

  Minimum eigenvalue in the overlap matrix is 2.0435860321E-04.
  Reciprocal condition number of the overlap matrix is 2.0912875399E-05.
    Using symmetric orthogonalization.

  ==> Pre-Iterations <==

  SCF Guess: Superposition of Atomic Densities via on-the-fly atomic UHF (no occupation information).

   -------------------------
    Irrep   Nso     Nmo    
   -------------------------
     A        276     276 
   -------------------------
    Total     276     276
   -------------------------

  ==> Iterations <==

                           Total Energy        Delta E     RMS |[F,P]|

   @DF-RKS iter SAD:   -76.05254565986527   -7.60525e+01   0.00000e+00 
   @DF-RKS iter   1:   -76.24189761802089   -1.89352e-01   2.64599e-03 DIIS/ADIIS
   @DF-RKS iter   2:   -75.63010613956135    6.11791e-01   5.08763e-03 DIIS/ADIIS
   @DF-RKS iter   3:   -76.42809107073008   -7.97985e-01   2.28367e-04 DIIS/ADIIS
   @DF-RKS iter   4:   -76.42997146265357   -1.88039e-03   2.70563e-05 DIIS
   @DF-RKS iter   5:   -76.42998897939617   -1.75167e-05   7.76887e-06 DIIS
   @DF-RKS iter   6:   -76.42999054780485   -1.56841e-06   4.74657e-07 DIIS
   @DF-RKS iter   7:   -76.42999055317813   -5.37328e-09   1.17415e-07 DIIS
   @DF-RKS iter   8:   -76.42999055355288   -3.74754e-10   3.23893e-08 DIIS
   @DF-RKS iter   9:   -76.42999055358604   -3.31539e-11   2.26866e-09 DIIS
   @DF-RKS iter  10:   -76.42999055358604    0.00000e+00   1.40361e-10 DIIS
   @DF-RKS iter  11:   -76.42999055358626   -2.27374e-13   1.59402e-11 DIIS
  Energy and wave function converged.


  ==> Post-Iterations <==

   Electrons on quadrature grid:
      Ntotal   =   10.0000000759 ; deviation = 7.587e-08 

    Orbital Energies [Eh]
    ---------------------

    Doubly Occupied:                                                      

       1A    -18.969157     2A     -0.970879     3A     -0.501233  
       4A     -0.347727     5A     -0.277209  

    Virtual:                                                              

       6A     -0.012363     7A      0.029966     8A      0.035461  
       9A      0.044038    10A      0.048585    11A      0.071202  
      12A      0.089890    13A      0.106559    14A      0.109732  
      15A      0.121501    16A      0.137576    17A      0.144182  
      18A      0.148066    19A      0.150083    20A      0.166616  
      21A      0.179635    22A      0.193242    23A      0.196141  
      24A      0.214205    25A      0.227979    26A      0.256831  
      27A      0.261787    28A      0.265366    29A      0.278124  
      30A      0.296220    31A      0.305328    32A      0.307428  
      33A      0.328784    34A      0.333138    35A      0.340499  
      36A      0.356308    37A      0.358852    38A      0.365314  
      39A      0.374515    40A      0.380166    41A      0.388447  
      42A      0.412172    43A      0.423850    44A      0.434027  
      45A      0.441801    46A      0.505656    47A      0.545288  
      48A      0.577803    49A      0.595168    50A      0.622640  
      51A      0.640236    52A      0.648063    53A      0.653687  
      54A      0.678776    55A      0.695118    56A      0.716015  
      57A      0.733504    58A      0.741451    59A      0.753148  
      60A      0.761807    61A      0.773294    62A      0.790304  
      63A      0.797286    64A      0.808953    65A      0.815143  
      66A      0.825461    67A      0.837129    68A      0.840647  
      69A      0.872274    70A      0.880033    71A      0.893545  
      72A      0.910032    73A      0.912611    74A      0.923263  
      75A      0.929188    76A      0.940100    77A      0.958266  
      78A      0.973087    79A      0.975007    80A      0.987506  
      81A      1.009732    82A      1.016135    83A      1.025276  
      84A      1.033539    85A      1.039529    86A      1.071444  
      87A      1.081941    88A      1.095418    89A      1.116537  
      90A      1.132568    91A      1.139090    92A      1.156968  
      93A      1.168900    94A      1.178493    95A      1.210821  
      96A      1.233653    97A      1.249815    98A      1.288542  
      99A      1.309670   100A      1.345186   101A      1.357098  
     102A      1.406548   103A      1.415906   104A      1.453251  
     105A      1.461515   106A      1.489681   107A      1.509238  
     108A      1.578335   109A      1.602173   110A      1.630978  
     111A      1.673393   112A      1.680208   113A      1.700058  
     114A      1.710302   115A      1.749667   116A      1.760657  
     117A      1.793698   118A      1.812262   119A      1.820751  
     120A      1.838819   121A      1.852940   122A      1.880310  
     123A      1.884274   124A      1.956617   125A      2.014664  
     126A      2.051895   127A      2.061014   128A      2.164355  
     129A      2.235634   130A      2.272032   131A      2.296736  
     132A      2.338819   133A      2.387064   134A      2.444135  
     135A      2.461330   136A      2.466599   137A      2.478973  
     138A      2.513356   139A      2.532319   140A      2.538280  
     141A      2.548782   142A      2.562829   143A      2.570815  
     144A      2.588197   145A      2.610631   146A      2.625613  
     147A      2.630917   148A      2.656069   149A      2.660550  
     150A      2.698168   151A      2.712011   152A      2.768984  
     153A      2.790324   154A      2.831608   155A      2.861636  
     156A      2.964781   157A      3.003933   158A      3.083024  
     159A      3.121050   160A      3.157220   161A      3.214939  
     162A      3.222123   163A      3.234064   164A      3.282427  
     165A      3.290573   166A      3.434974   167A      3.465261  
     168A      3.508393   169A      3.564138   170A      3.618440  
     171A      3.640727   172A      3.656804   173A      3.716113  
     174A      3.910227   175A      3.977817   176A      4.064324  
     177A      4.123954   178A      4.193295   179A      4.303309  
     180A      4.348930   181A      4.358886   182A      4.420236  
     183A      4.441405   184A      4.471194   185A      4.479433  
     186A      4.488889   187A      4.528335   188A      4.562731  
     189A      4.568242   190A      4.613660   191A      4.641645  
     192A      4.668062   193A      4.719232   194A      4.747437  
     195A      4.783730   196A      4.828896   197A      4.865688  
     198A      4.895183   199A      4.909545   200A      4.978443  
     201A      5.036547   202A      5.082138   203A      5.111556  
     204A      5.132033   205A      5.188629   206A      5.209971  
     207A      5.260756   208A      5.398427   209A      5.455999  
     210A      5.498850   211A      5.520629   212A      5.561575  
     213A      5.585523   214A      5.661717   215A      5.695624  
     216A      5.727078   217A      5.802234   218A      5.914972  
     219A      5.966610   220A      6.049334   221A      6.082969  
     222A      6.300828   223A      6.321831   224A      6.404007  
     225A      6.471746   226A      6.589617   227A      6.656094  
     228A      6.758357   229A      6.799071   230A      6.934589  
     231A      6.950906   232A      6.975579   233A      7.012584  
     234A      7.065121   235A      7.164407   236A      7.245629  
     237A      7.266170   238A      7.501048   239A      7.593694  
     240A      7.655191   241A      7.750238   242A      7.771793  
     243A      7.812716   244A      7.911646   245A      7.999134  
     246A      8.083454   247A      8.128221   248A      8.250165  
     249A      8.294057   250A      8.397154   251A      8.444297  
     252A      8.559119   253A      8.710748   254A      8.941359  
     255A      9.206289   256A      9.687184   257A      9.696233  
     258A      9.843848   259A      9.896830   260A      9.974777  
     261A     10.158649   262A     10.202295   263A     10.407102  
     264A     11.071218   265A     11.309196   266A     11.622116  
     267A     11.796170   268A     11.845831   269A     12.185879  
     270A     13.380839   271A     13.611746   272A     13.792046  
     273A     14.084341   274A     15.444023   275A     63.612849  
     276A     65.660568  

    Final Occupation by Irrep:
              A 
    DOCC [     5 ]
    NA   [     5 ]
    NB   [     5 ]

  @DF-RKS Final Energy:   -76.42999055358626

   => Energetics <=

    Nuclear Repulsion Energy =              8.9756571962835459
    One-Electron Energy =                -122.6763624768694285
    Two-Electron Energy =                  46.5490846970593211
    DFT Exchange-Correlation Energy =      -9.2783697900597080
    Empirical Dispersion Energy =          -0.0000001800000000
    VV10 Nonlocal Energy =                  0.0000000000000000
    Total Energy =                        -76.4299905535862649

Computation Completed


Properties will be evaluated at   0.000000,   0.000000,   0.000000 [a0]

Properties computed using the SCF density matrix


 Multipole Moments:

 ------------------------------------------------------------------------------------
     Multipole            Electronic (a.u.)      Nuclear  (a.u.)        Total (a.u.)
 ------------------------------------------------------------------------------------

 L = 1.  Multiply by 2.5417464519 to convert [e a0] to [Debye]
 Dipole X            :        -37.4066431           37.3495294           -0.0571137
 Dipole Y            :        -17.7354481           18.4269953            0.6915472
 Dipole Z            :         27.7813834          -27.8425770           -0.0611937
 Magnitude           :                                                    0.6965947

 ------------------------------------------------------------------------------------

*** tstop() called on d-19-15-2 at Mon Sep 18 02:55:06 2023
Module time:
	user time   =      47.90 seconds =       0.80 minutes
	system time =       0.27 seconds =       0.00 minutes
	total time  =         48 seconds =       0.80 minutes
Total time:
	user time   =   30228.83 seconds =     503.81 minutes
	system time =   14812.68 seconds =     246.88 minutes
	total time  =      50802 seconds =     846.70 minutes

    Psi4 stopped on: Monday, 18 September 2023 02:55AM
    Psi4 wall time for execution: 0:00:48.35


    -----------------------------------------------------------------------
          Psi4: An Open-Source Ab Initio Electronic Structure Package
                               Psi4 1.7 release

                         Git: Rev {HEAD} 6ce35a5 


    D. G. A. Smith, L. A. Burns, A. C. Simmonett, R. M. Parrish,
    M. C. Schieber, R. Galvelis, P. Kraus, H. Kruse, R. Di Remigio,
    A. Alenaizan, A. M. James, S. Lehtola, J. P. Misiewicz, M. Scheurer,
    R. A. Shaw, J. B. Schriber, Y. Xie, Z. L. Glick, D. A. Sirianni,
    J. S. O'Brien, J. M. Waldrop, A. Kumar, E. G. Hohenstein,
    B. P. Pritchard, B. R. Brooks, H. F. Schaefer III, A. Yu. Sokolov,
    K. Patkowski, A. E. DePrince III, U. Bozkaya, R. A. King,
    F. A. Evangelista, J. M. Turney, T. D. Crawford, C. D. Sherrill,
    J. Chem. Phys. 152(18) 184108 (2020). https://doi.org/10.1063/5.0006002

                            Additional Code Authors
    E. T. Seidl, C. L. Janssen, E. F. Valeev, M. L. Leininger,
    J. F. Gonthier, R. M. Richard, H. R. McAlexander, M. Saitow, X. Wang,
    P. Verma, M. H. Lechner, A. Jiang, S. Behnle, A. G. Heide,
    M. F. Herbst, and D. L. Poole

             Previous Authors, Complete List of Code Contributors,
                       and Citations for Specific Modules
    https://github.com/psi4/psi4/blob/master/codemeta.json
    https://github.com/psi4/psi4/graphs/contributors
    http://psicode.org/psi4manual/master/introduction.html#citing-psifour

    -----------------------------------------------------------------------


    Psi4 started on: Sunday, 17 September 2023 12:48PM

    Process ID: 258105
    Host:       d-19-15-2
    PSIDATADIR: /home/gridsan/kfisher/.conda/envs/p4env/share/psi4
    Memory:     18.6 GiB
    Threads:    1
    
  ==> Input QCSchema <==

--------------------------------------------------------------------------
{'driver': 'energy',
 'extras': {'psiapi': True, 'wfn_qcvars_only': True},
 'id': None,
 'keywords': {'D_CONVERGENCE': 1e-10, 'E_CONVERGENCE': 1e-10, 'function_kwargs': {'dft_functional': 'scan-d3zero2b'}},
 'model': {'basis': 'aug-cc-pvtz', 'method': 'scf'},
 'molecule': {'atom_labels': ['', '', '', '', '', '', '', '', ''],
              'atomic_numbers': [1, 1, 8, 1, 1, 8, 1, 1, 8],
              'fix_com': True,
              'fix_orientation': True,
              'fix_symmetry': 'c1',
              'fragment_charges': [0.0, 0.0, 0.0],
              'fragment_multiplicities': [1, 1, 1],
              'fragments': [[0, 1, 2], [3, 4, 5], [6, 7, 8]],
              'geometry': [8.089863459123253, -2.7362000872387267, -3.439307482073281, 5.756813575064834,
                           -1.0147792821994315, -3.025940191136765, 6.371891404262917, -2.778193108767119,
                           -2.8393977285937986, 4.400977031968829, 2.8541305625911826, -1.5559415511441226,
                           2.926392121156006, 2.534748611531699, -4.168538488660688, 3.7527700361201193,
                           1.6297645148173667, -2.764762125994824, -1.702870818754792, 5.990171866975498,
                           -3.507360450481358, 0.5316601590680515, 6.332357218779926, -5.316333344057006,
                           -0.11223272431706587, 6.900311911347789, -3.643370918333655],
              'mass_numbers': [1, 1, 16, 1, 1, 16, 1, 1, 16],
              'masses': [1.00782503223, 1.00782503223, 15.99491461957, 1.00782503223, 1.00782503223, 15.99491461957,
                         1.00782503223, 1.00782503223, 15.99491461957],
              'molecular_charge': 0.0,
              'molecular_multiplicity': 1,
              'name': 'H6O3',
              'provenance': {'creator': 'QCElemental',
                             'routine': 'qcelemental.molparse.from_string',
                             'version': 'v0.25.1'},
              'real': [False, False, False, True, True, True, True, True, True],
              'schema_name': 'qcschema_molecule',
              'schema_version': 2,
              'symbols': ['H', 'H', 'O', 'H', 'H', 'O', 'H', 'H', 'O'],
              'validated': True},
 'protocols': {'stdout': True},
 'provenance': {'creator': 'QCElemental', 'routine': 'qcelemental.models.results', 'version': 'v0.25.1'},
 'schema_name': 'qcschema_input',
 'schema_version': 1}
--------------------------------------------------------------------------

Scratch directory: /home/gridsan/kfisher/scratch/

*** tstart() called on d-19-15-2
*** at Mon Sep 18 02:55:07 2023

   => Loading Basis Set <=

    Name: AUG-CC-PVTZ
    Role: ORBITAL
    Keyword: BASIS
    atoms 1-2, 4-5, 7-8 entry H          line    40 file /home/gridsan/kfisher/.conda/envs/p4env/share/psi4/basis/aug-cc-pvtz.gbs 
    atoms 3, 6, 9       entry O          line   331 file /home/gridsan/kfisher/.conda/envs/p4env/share/psi4/basis/aug-cc-pvtz.gbs 

   => SCAN-D3: Empirical Dispersion <=

    Grimme's -D3 (zero-damping) Dispersion Correction
    Grimme S.; Antony J.; Ehrlich S.; Krieg H. (2010), J. Chem. Phys., 132: 154104
    Parametrisation from:    J.G. Brandenburg, J. E. Bates, J. Sun, J.P. Perdew, Phys. Rev. B 94, 115144, 2016

        s6 =       1.000000
        s8 =       0.000000
       sr6 =       1.324000
    alpha6 =      14.000000
       sr8 =       1.000000


         ---------------------------------------------------------
                                   SCF
               by Justin Turney, Rob Parrish, Andy Simmonett
                          and Daniel G. A. Smith
                              RKS Reference
                        1 Threads,  19073 MiB Core
         ---------------------------------------------------------

  ==> Geometry <==

    Molecular point group: c1
    Full point group: C1

    Geometry (in Bohr), charge = 0, multiplicity = 1:

       Center              X                  Y                   Z               Mass       
    ------------   -----------------  -----------------  -----------------  -----------------
      Gh(H)           8.089863459123    -2.736200087239    -3.439307482073     1.007825032230
      Gh(H)           5.756813575065    -1.014779282199    -3.025940191137     1.007825032230
      Gh(O)           6.371891404263    -2.778193108767    -2.839397728594    15.994914619570
         H            4.400977031969     2.854130562591    -1.555941551144     1.007825032230
         H            2.926392121156     2.534748611532    -4.168538488661     1.007825032230
         O            3.752770036120     1.629764514817    -2.764762125995    15.994914619570
         H           -1.702870818755     5.990171866975    -3.507360450481     1.007825032230
         H            0.531660159068     6.332357218780    -5.316333344057     1.007825032230
         O           -0.112232724317     6.900311911348    -3.643370918334    15.994914619570

  Running in c1 symmetry.

  Rotational constants: A =      0.04893  B =      0.04430  C =      0.02344 [cm^-1]
  Rotational constants: A =   1466.73574  B =   1328.18854  C =    702.85990 [MHz]
  Nuclear repulsion =   33.482145313772797

  Charge       = 0
  Multiplicity = 1
  Electrons    = 20
  Nalpha       = 10
  Nbeta        = 10

  ==> Algorithm <==

  SCF Algorithm Type is DF.
  DIIS enabled.
  MOM disabled.
  Fractional occupation disabled.
  Guess Type is SAD.
  Energy threshold   = 1.00e-10
  Density threshold  = 1.00e-10
  Integral threshold = 1.00e-12

  ==> Primary Basis <==

  Basis Set: AUG-CC-PVTZ
    Blend: AUG-CC-PVTZ
    Number of shells: 96
    Number of basis functions: 276
    Number of Cartesian functions: 315
    Spherical Harmonics?: true
    Max angular momentum: 3

  ==> DFT Potential <==

   => Composite Functional: SCAN-D3ZERO2B <= 

    SCAN Meta-GGA XC Functional
(10.1103/PhysRevLett.115.036402)
    J. Sun, A. Ruzsinszky, J. P. Perdew  Phys. Rev. Lett. 115, 036402, 2015


    Deriv               =              1
    GGA                 =           TRUE
    Meta                =           TRUE

    Exchange Hybrid     =          FALSE
    MP2 Hybrid          =          FALSE

   => Exchange Functionals <=

    1.0000   XC_MGGA_X_SCAN

   => Correlation Functionals <=

    1.0000   XC_MGGA_C_SCAN

   => LibXC Density Thresholds  <==

    XC_MGGA_C_SCAN:  1.00E-15 
    XC_MGGA_X_SCAN:  1.00E-15 

   => Molecular Quadrature <=

    Radial Scheme          =       TREUTLER
    Pruning Scheme         =           NONE
    Nuclear Scheme         =       TREUTLER

    Blocking Scheme        =         OCTREE
    BS radius alpha        =              1
    Pruning alpha          =              1
    Radial Points          =             75
    Spherical Points       =            302
    Total Points           =         198025
    Total Blocks           =           1504
    Max Points             =            256
    Max Functions          =            249
    Weights Tolerance      =       1.00E-15

   => Loading Basis Set <=

    Name: (AUG-CC-PVTZ AUX)
    Role: JKFIT
    Keyword: DF_BASIS_SCF
    atoms 1-2, 4-5, 7-8 entry H          line    70 file /home/gridsan/kfisher/.conda/envs/p4env/share/psi4/basis/aug-cc-pvtz-jkfit.gbs 
    atoms 3, 6, 9       entry O          line   286 file /home/gridsan/kfisher/.conda/envs/p4env/share/psi4/basis/aug-cc-pvtz-jkfit.gbs 

  ==> Integral Setup <==

  DFHelper Memory: AOs need 0.318 GiB; user supplied 11.185 GiB. Using in-core AOs.

  ==> MemDFJK: Density-Fitted J/K Matrices <==

    J tasked:                   Yes
    K tasked:                    No
    wK tasked:                   No
    OpenMP threads:               1
    Memory [MiB]:             11453
    Algorithm:                 Core
    Schwarz Cutoff:           1E-12
    Mask sparsity (%):      10.1292
    Fitting Condition:        1E-10

   => Auxiliary Basis Set <=

  Basis Set: (AUG-CC-PVTZ AUX)
    Blend: AUG-CC-PVTZ-JKFIT
    Number of shells: 174
    Number of basis functions: 588
    Number of Cartesian functions: 723
    Spherical Harmonics?: true
    Max angular momentum: 4

  Cached 100.0% of DFT collocation blocks in 2.785 [GiB].

  Minimum eigenvalue in the overlap matrix is 2.0435860321E-04.
  Reciprocal condition number of the overlap matrix is 2.0912875399E-05.
    Using symmetric orthogonalization.

  ==> Pre-Iterations <==

  SCF Guess: Superposition of Atomic Densities via on-the-fly atomic UHF (no occupation information).

   -------------------------
    Irrep   Nso     Nmo    
   -------------------------
     A        276     276 
   -------------------------
    Total     276     276
   -------------------------

  ==> Iterations <==

                           Total Energy        Delta E     RMS |[F,P]|

   @DF-RKS iter SAD:  -152.12147583777102   -1.52121e+02   0.00000e+00 
   @DF-RKS iter   1:  -152.49233358003650   -3.70858e-01   3.70561e-03 DIIS/ADIIS
   @DF-RKS iter   2:  -151.35804819509039    1.13429e+00   6.99941e-03 DIIS/ADIIS
   @DF-RKS iter   3:  -152.85836436080206   -1.50032e+00   2.79606e-04 DIIS/ADIIS
   @DF-RKS iter   4:  -152.86113971268441   -2.77535e-03   4.63804e-05 DIIS
   @DF-RKS iter   5:  -152.86117627307854   -3.65604e-05   2.94469e-05 DIIS
   @DF-RKS iter   6:  -152.86119284591325   -1.65728e-05   1.56343e-05 DIIS
   @DF-RKS iter   7:  -152.86119934252045   -6.49661e-06   1.02550e-06 DIIS
   @DF-RKS iter   8:  -152.86119937203136   -2.95109e-08   2.68969e-07 DIIS
   @DF-RKS iter   9:  -152.86119937420111   -2.16974e-09   3.50372e-08 DIIS
   @DF-RKS iter  10:  -152.86119937423800   -3.68914e-11   2.58528e-09 DIIS
   @DF-RKS iter  11:  -152.86119937423786    1.42109e-13   5.71523e-10 DIIS
   @DF-RKS iter  12:  -152.86119937423825   -3.97904e-13   9.20343e-11 DIIS
  Energy and wave function converged.


  ==> Post-Iterations <==

   Electrons on quadrature grid:
      Ntotal   =   19.9999987438 ; deviation = -1.256e-06 

    Orbital Energies [Eh]
    ---------------------

    Doubly Occupied:                                                      

       1A    -18.986275     2A    -18.965196     3A     -0.987195  
       4A     -0.966700     5A     -0.502332     6A     -0.496994  
       7A     -0.373793     8A     -0.344562     9A     -0.292016  
      10A     -0.272768  

    Virtual:                                                              

      11A     -0.034176    12A      0.013307    13A      0.025232  
      14A      0.037956    15A      0.044036    16A      0.065916  
      17A      0.078045    18A      0.096463    19A      0.105663  
      20A      0.110735    21A      0.116350    22A      0.132061  
      23A      0.141222    24A      0.144065    25A      0.146774  
      26A      0.160682    27A      0.174986    28A      0.186030  
      29A      0.198157    30A      0.206421    31A      0.212993  
      32A      0.219944    33A      0.237645    34A      0.260611  
      35A      0.282615    36A      0.297854    37A      0.302890  
      38A      0.310134    39A      0.315198    40A      0.322444  
      41A      0.336055    42A      0.342391    43A      0.350946  
      44A      0.357844    45A      0.371482    46A      0.375118  
      47A      0.383057    48A      0.398785    49A      0.422280  
      50A      0.439036    51A      0.472248    52A      0.502440  
      53A      0.520141    54A      0.542244    55A      0.579148  
      56A      0.590313    57A      0.597801    58A      0.618898  
      59A      0.630663    60A      0.643658    61A      0.647959  
      62A      0.677289    63A      0.692080    64A      0.708885  
      65A      0.715270    66A      0.737737    67A      0.748816  
      68A      0.759646    69A      0.786172    70A      0.804191  
      71A      0.804587    72A      0.822904    73A      0.829962  
      74A      0.841422    75A      0.847610    76A      0.867754  
      77A      0.873206    78A      0.878045    79A      0.894757  
      80A      0.905367    81A      0.910870    82A      0.917499  
      83A      0.932234    84A      0.942337    85A      0.970672  
      86A      0.983608    87A      0.989955    88A      1.002036  
      89A      1.011101    90A      1.024303    91A      1.035067  
      92A      1.041174    93A      1.052281    94A      1.076935  
      95A      1.087915    96A      1.105134    97A      1.120437  
      98A      1.129504    99A      1.140612   100A      1.182787  
     101A      1.192428   102A      1.195279   103A      1.237273  
     104A      1.264221   105A      1.290832   106A      1.320867  
     107A      1.328477   108A      1.369630   109A      1.395090  
     110A      1.407064   111A      1.433064   112A      1.473807  
     113A      1.483850   114A      1.532276   115A      1.585901  
     116A      1.596116   117A      1.623234   118A      1.674393  
     119A      1.688358   120A      1.699694   121A      1.712018  
     122A      1.751917   123A      1.761484   124A      1.802805  
     125A      1.822405   126A      1.839103   127A      1.849365  
     128A      1.880873   129A      1.925352   130A      1.971207  
     131A      2.008438   132A      2.036855   133A      2.075559  
     134A      2.138076   135A      2.161938   136A      2.182114  
     137A      2.216731   138A      2.272026   139A      2.283205  
     140A      2.294417   141A      2.320440   142A      2.335832  
     143A      2.362811   144A      2.413260   145A      2.455221  
     146A      2.475020   147A      2.481530   148A      2.526560  
     149A      2.548475   150A      2.561575   151A      2.572221  
     152A      2.582344   153A      2.591177   154A      2.606667  
     155A      2.626440   156A      2.649559   157A      2.664332  
     158A      2.675002   159A      2.696570   160A      2.700527  
     161A      2.748164   162A      2.777624   163A      2.787406  
     164A      2.958861   165A      2.999156   166A      3.080895  
     167A      3.221297   168A      3.232281   169A      3.435785  
     170A      3.464733   171A      3.477751   172A      3.541816  
     173A      3.556897   174A      3.611731   175A      3.642564  
     176A      3.712655   177A      3.820849   178A      3.909147  
     179A      3.920673   180A      3.976720   181A      4.040905  
     182A      4.063888   183A      4.107318   184A      4.124965  
     185A      4.182536   186A      4.197670   187A      4.256128  
     188A      4.263773   189A      4.299235   190A      4.324285  
     191A      4.352337   192A      4.363265   193A      4.441761  
     194A      4.462740   195A      4.478730   196A      4.491784  
     197A      4.510373   198A      4.555536   199A      4.593186  
     200A      4.636101   201A      4.719976   202A      4.753420  
     203A      4.791125   204A      4.834103   205A      4.897183  
     206A      4.944038   207A      5.009138   208A      5.018610  
     209A      5.049339   210A      5.064764   211A      5.066871  
     212A      5.112733   213A      5.132536   214A      5.192450  
     215A      5.260304   216A      5.284333   217A      5.393337  
     218A      5.449309   219A      5.502348   220A      5.570273  
     221A      5.662384   222A      5.695823   223A      5.727766  
     224A      5.913384   225A      5.942029   226A      5.975438  
     227A      6.050336   228A      6.248207   229A      6.322700  
     230A      6.406558   231A      6.426791   232A      6.586861  
     233A      6.624985   234A      6.660261   235A      6.761518  
     236A      6.798879   237A      6.834072   238A      6.872045  
     239A      6.938930   240A      6.942957   241A      6.959404  
     242A      6.983378   243A      6.997403   244A      7.018568  
     245A      7.057493   246A      7.078154   247A      7.160034  
     248A      7.181449   249A      7.250793   250A      7.273022  
     251A      7.507991   252A      7.529250   253A      7.587699  
     254A      7.604377   255A      7.754489   256A      7.776869  
     257A      7.915735   258A      8.131095   259A      8.296894  
     260A      8.391160   261A      8.401434   262A      8.443989  
     263A      8.946107   264A      9.214121   265A      9.694831  
     266A      9.900083   267A     10.162367   268A     10.411181  
     269A     11.315432   270A     11.799470   271A     12.189703  
     272A     13.615450   273A     14.089845   274A     14.613205  
     275A     15.442811   276A     65.668767  

    Final Occupation by Irrep:
              A 
    DOCC [    10 ]
    NA   [    10 ]
    NB   [    10 ]

  @DF-RKS Final Energy:  -152.86119937423825

   => Energetics <=

    Nuclear Repulsion Energy =             33.4821453137727971
    One-Electron Energy =                -276.3057858030456373
    Two-Electron Energy =                 108.5175924650708907
    DFT Exchange-Correlation Energy =     -18.5548772800363260
    Empirical Dispersion Energy =          -0.0002740700000000
    VV10 Nonlocal Energy =                  0.0000000000000000
    Total Energy =                       -152.8611993742382538

Computation Completed


Properties will be evaluated at   0.000000,   0.000000,   0.000000 [a0]

Properties computed using the SCF density matrix


 Multipole Moments:

 ------------------------------------------------------------------------------------
     Multipole            Electronic (a.u.)      Nuclear  (a.u.)        Total (a.u.)
 ------------------------------------------------------------------------------------

 L = 1.  Multiply by 2.5417464519 to convert [e a0] to [Debye]
 Dipole X            :        -35.6816819           35.2804570           -0.4012249
 Dipole Y            :        -85.6797929           85.9520197            0.2722267
 Dipole Z            :         65.3070142          -65.8132382           -0.5062240
 Magnitude           :                                                    0.7009647

 ------------------------------------------------------------------------------------

*** tstop() called on d-19-15-2 at Mon Sep 18 02:55:59 2023
Module time:
	user time   =      52.08 seconds =       0.87 minutes
	system time =       0.26 seconds =       0.00 minutes
	total time  =         52 seconds =       0.87 minutes
Total time:
	user time   =   30280.97 seconds =     504.68 minutes
	system time =   14812.94 seconds =     246.88 minutes
	total time  =      50855 seconds =     847.58 minutes

    Psi4 stopped on: Monday, 18 September 2023 02:55AM
    Psi4 wall time for execution: 0:00:52.57


    -----------------------------------------------------------------------
          Psi4: An Open-Source Ab Initio Electronic Structure Package
                               Psi4 1.7 release

                         Git: Rev {HEAD} 6ce35a5 


    D. G. A. Smith, L. A. Burns, A. C. Simmonett, R. M. Parrish,
    M. C. Schieber, R. Galvelis, P. Kraus, H. Kruse, R. Di Remigio,
    A. Alenaizan, A. M. James, S. Lehtola, J. P. Misiewicz, M. Scheurer,
    R. A. Shaw, J. B. Schriber, Y. Xie, Z. L. Glick, D. A. Sirianni,
    J. S. O'Brien, J. M. Waldrop, A. Kumar, E. G. Hohenstein,
    B. P. Pritchard, B. R. Brooks, H. F. Schaefer III, A. Yu. Sokolov,
    K. Patkowski, A. E. DePrince III, U. Bozkaya, R. A. King,
    F. A. Evangelista, J. M. Turney, T. D. Crawford, C. D. Sherrill,
    J. Chem. Phys. 152(18) 184108 (2020). https://doi.org/10.1063/5.0006002

                            Additional Code Authors
    E. T. Seidl, C. L. Janssen, E. F. Valeev, M. L. Leininger,
    J. F. Gonthier, R. M. Richard, H. R. McAlexander, M. Saitow, X. Wang,
    P. Verma, M. H. Lechner, A. Jiang, S. Behnle, A. G. Heide,
    M. F. Herbst, and D. L. Poole

             Previous Authors, Complete List of Code Contributors,
                       and Citations for Specific Modules
    https://github.com/psi4/psi4/blob/master/codemeta.json
    https://github.com/psi4/psi4/graphs/contributors
    http://psicode.org/psi4manual/master/introduction.html#citing-psifour

    -----------------------------------------------------------------------


    Psi4 started on: Sunday, 17 September 2023 12:48PM

    Process ID: 258105
    Host:       d-19-15-2
    PSIDATADIR: /home/gridsan/kfisher/.conda/envs/p4env/share/psi4
    Memory:     18.6 GiB
    Threads:    1
    
  ==> Input QCSchema <==

--------------------------------------------------------------------------
{'driver': 'energy',
 'extras': {'psiapi': True, 'wfn_qcvars_only': True},
 'id': None,
 'keywords': {'D_CONVERGENCE': 1e-10, 'E_CONVERGENCE': 1e-10, 'function_kwargs': {'dft_functional': 'scan-d3zero2b'}},
 'model': {'basis': 'aug-cc-pvtz', 'method': 'scf'},
 'molecule': {'atom_labels': ['', '', '', '', '', '', '', '', ''],
              'atomic_numbers': [1, 1, 8, 1, 1, 8, 1, 1, 8],
              'fix_com': True,
              'fix_orientation': True,
              'fix_symmetry': 'c1',
              'fragment_charges': [0.0, 0.0, 0.0],
              'fragment_multiplicities': [1, 1, 1],
              'fragments': [[0, 1, 2], [3, 4, 5], [6, 7, 8]],
              'geometry': [8.089863459123253, -2.7362000872387267, -3.439307482073281, 5.756813575064834,
                           -1.0147792821994315, -3.025940191136765, 6.371891404262917, -2.778193108767119,
                           -2.8393977285937986, 4.400977031968829, 2.8541305625911826, -1.5559415511441226,
                           2.926392121156006, 2.534748611531699, -4.168538488660688, 3.7527700361201193,
                           1.6297645148173667, -2.764762125994824, -1.702870818754792, 5.990171866975498,
                           -3.507360450481358, 0.5316601590680515, 6.332357218779926, -5.316333344057006,
                           -0.11223272431706587, 6.900311911347789, -3.643370918333655],
              'mass_numbers': [1, 1, 16, 1, 1, 16, 1, 1, 16],
              'masses': [1.00782503223, 1.00782503223, 15.99491461957, 1.00782503223, 1.00782503223, 15.99491461957,
                         1.00782503223, 1.00782503223, 15.99491461957],
              'molecular_charge': 0.0,
              'molecular_multiplicity': 1,
              'name': 'H6O3',
              'provenance': {'creator': 'QCElemental',
                             'routine': 'qcelemental.molparse.from_string',
                             'version': 'v0.25.1'},
              'real': [True, True, True, False, False, False, True, True, True],
              'schema_name': 'qcschema_molecule',
              'schema_version': 2,
              'symbols': ['H', 'H', 'O', 'H', 'H', 'O', 'H', 'H', 'O'],
              'validated': True},
 'protocols': {'stdout': True},
 'provenance': {'creator': 'QCElemental', 'routine': 'qcelemental.models.results', 'version': 'v0.25.1'},
 'schema_name': 'qcschema_input',
 'schema_version': 1}
--------------------------------------------------------------------------

Scratch directory: /home/gridsan/kfisher/scratch/

*** tstart() called on d-19-15-2
*** at Mon Sep 18 02:55:59 2023

   => Loading Basis Set <=

    Name: AUG-CC-PVTZ
    Role: ORBITAL
    Keyword: BASIS
    atoms 1-2, 4-5, 7-8 entry H          line    40 file /home/gridsan/kfisher/.conda/envs/p4env/share/psi4/basis/aug-cc-pvtz.gbs 
    atoms 3, 6, 9       entry O          line   331 file /home/gridsan/kfisher/.conda/envs/p4env/share/psi4/basis/aug-cc-pvtz.gbs 

   => SCAN-D3: Empirical Dispersion <=

    Grimme's -D3 (zero-damping) Dispersion Correction
    Grimme S.; Antony J.; Ehrlich S.; Krieg H. (2010), J. Chem. Phys., 132: 154104
    Parametrisation from:    J.G. Brandenburg, J. E. Bates, J. Sun, J.P. Perdew, Phys. Rev. B 94, 115144, 2016

        s6 =       1.000000
        s8 =       0.000000
       sr6 =       1.324000
    alpha6 =      14.000000
       sr8 =       1.000000


         ---------------------------------------------------------
                                   SCF
               by Justin Turney, Rob Parrish, Andy Simmonett
                          and Daniel G. A. Smith
                              RKS Reference
                        1 Threads,  19073 MiB Core
         ---------------------------------------------------------

  ==> Geometry <==

    Molecular point group: c1
    Full point group: C1

    Geometry (in Bohr), charge = 0, multiplicity = 1:

       Center              X                  Y                   Z               Mass       
    ------------   -----------------  -----------------  -----------------  -----------------
         H            8.089863459123    -2.736200087239    -3.439307482073     1.007825032230
         H            5.756813575065    -1.014779282199    -3.025940191137     1.007825032230
         O            6.371891404263    -2.778193108767    -2.839397728594    15.994914619570
      Gh(H)           4.400977031969     2.854130562591    -1.555941551144     1.007825032230
      Gh(H)           2.926392121156     2.534748611532    -4.168538488661     1.007825032230
      Gh(O)           3.752770036120     1.629764514817    -2.764762125995    15.994914619570
         H           -1.702870818755     5.990171866975    -3.507360450481     1.007825032230
         H            0.531660159068     6.332357218780    -5.316333344057     1.007825032230
         O           -0.112232724317     6.900311911348    -3.643370918334    15.994914619570

  Running in c1 symmetry.

  Rotational constants: A =      0.04893  B =      0.04430  C =      0.02344 [cm^-1]
  Rotational constants: A =   1466.73574  B =   1328.18854  C =    702.85990 [MHz]
  Nuclear repulsion =   26.630829569775347

  Charge       = 0
  Multiplicity = 1
  Electrons    = 20
  Nalpha       = 10
  Nbeta        = 10

  ==> Algorithm <==

  SCF Algorithm Type is DF.
  DIIS enabled.
  MOM disabled.
  Fractional occupation disabled.
  Guess Type is SAD.
  Energy threshold   = 1.00e-10
  Density threshold  = 1.00e-10
  Integral threshold = 1.00e-12

  ==> Primary Basis <==

  Basis Set: AUG-CC-PVTZ
    Blend: AUG-CC-PVTZ
    Number of shells: 96
    Number of basis functions: 276
    Number of Cartesian functions: 315
    Spherical Harmonics?: true
    Max angular momentum: 3

  ==> DFT Potential <==

   => Composite Functional: SCAN-D3ZERO2B <= 

    SCAN Meta-GGA XC Functional
(10.1103/PhysRevLett.115.036402)
    J. Sun, A. Ruzsinszky, J. P. Perdew  Phys. Rev. Lett. 115, 036402, 2015


    Deriv               =              1
    GGA                 =           TRUE
    Meta                =           TRUE

    Exchange Hybrid     =          FALSE
    MP2 Hybrid          =          FALSE

   => Exchange Functionals <=

    1.0000   XC_MGGA_X_SCAN

   => Correlation Functionals <=

    1.0000   XC_MGGA_C_SCAN

   => LibXC Density Thresholds  <==

    XC_MGGA_C_SCAN:  1.00E-15 
    XC_MGGA_X_SCAN:  1.00E-15 

   => Molecular Quadrature <=

    Radial Scheme          =       TREUTLER
    Pruning Scheme         =           NONE
    Nuclear Scheme         =       TREUTLER

    Blocking Scheme        =         OCTREE
    BS radius alpha        =              1
    Pruning alpha          =              1
    Radial Points          =             75
    Spherical Points       =            302
    Total Points           =         198025
    Total Blocks           =           1504
    Max Points             =            256
    Max Functions          =            249
    Weights Tolerance      =       1.00E-15

   => Loading Basis Set <=

    Name: (AUG-CC-PVTZ AUX)
    Role: JKFIT
    Keyword: DF_BASIS_SCF
    atoms 1-2, 4-5, 7-8 entry H          line    70 file /home/gridsan/kfisher/.conda/envs/p4env/share/psi4/basis/aug-cc-pvtz-jkfit.gbs 
    atoms 3, 6, 9       entry O          line   286 file /home/gridsan/kfisher/.conda/envs/p4env/share/psi4/basis/aug-cc-pvtz-jkfit.gbs 

  ==> Integral Setup <==

  DFHelper Memory: AOs need 0.318 GiB; user supplied 11.185 GiB. Using in-core AOs.

  ==> MemDFJK: Density-Fitted J/K Matrices <==

    J tasked:                   Yes
    K tasked:                    No
    wK tasked:                   No
    OpenMP threads:               1
    Memory [MiB]:             11453
    Algorithm:                 Core
    Schwarz Cutoff:           1E-12
    Mask sparsity (%):      10.1292
    Fitting Condition:        1E-10

   => Auxiliary Basis Set <=

  Basis Set: (AUG-CC-PVTZ AUX)
    Blend: AUG-CC-PVTZ-JKFIT
    Number of shells: 174
    Number of basis functions: 588
    Number of Cartesian functions: 723
    Spherical Harmonics?: true
    Max angular momentum: 4

  Cached 100.0% of DFT collocation blocks in 2.785 [GiB].

  Minimum eigenvalue in the overlap matrix is 2.0435860321E-04.
  Reciprocal condition number of the overlap matrix is 2.0912875399E-05.
    Using symmetric orthogonalization.

  ==> Pre-Iterations <==

  SCF Guess: Superposition of Atomic Densities via on-the-fly atomic UHF (no occupation information).

   -------------------------
    Irrep   Nso     Nmo    
   -------------------------
     A        276     276 
   -------------------------
    Total     276     276
   -------------------------

  ==> Iterations <==

                           Total Energy        Delta E     RMS |[F,P]|

   @DF-RKS iter SAD:  -152.10741636834524   -1.52107e+02   0.00000e+00 
   @DF-RKS iter   1:  -152.48828328342464   -3.80867e-01   3.71997e-03 DIIS/ADIIS
   @DF-RKS iter   2:  -151.28065460202669    1.20763e+00   7.15358e-03 DIIS/ADIIS
   @DF-RKS iter   3:  -152.85774043068798   -1.57709e+00   2.86910e-04 DIIS/ADIIS
   @DF-RKS iter   4:  -152.86065088690992   -2.91046e-03   7.33072e-05 DIIS
   @DF-RKS iter   5:  -152.86068809254024   -3.72056e-05   6.33589e-05 DIIS
   @DF-RKS iter   6:  -152.86079008271841   -1.01990e-04   1.00518e-05 DIIS
   @DF-RKS iter   7:  -152.86079274824360   -2.66553e-06   5.44576e-07 DIIS
   @DF-RKS iter   8:  -152.86079275540774   -7.16415e-09   1.68029e-07 DIIS
   @DF-RKS iter   9:  -152.86079275622606   -8.18318e-10   3.96213e-08 DIIS
   @DF-RKS iter  10:  -152.86079275627509   -4.90274e-11   1.89017e-09 DIIS
   @DF-RKS iter  11:  -152.86079275627500    8.52651e-14   2.51906e-10 DIIS
   @DF-RKS iter  12:  -152.86079275627552   -5.11591e-13   6.79573e-11 DIIS
  Energy and wave function converged.


  ==> Post-Iterations <==

   Electrons on quadrature grid:
      Ntotal   =   19.9999995189 ; deviation = -4.811e-07 

    Orbital Energies [Eh]
    ---------------------

    Doubly Occupied:                                                      

       1A    -18.976056     2A    -18.971033     3A     -0.977052  
       4A     -0.974626     5A     -0.494540     6A     -0.491363  
       7A     -0.363858     8A     -0.356406     9A     -0.281825  
      10A     -0.278562  

    Virtual:                                                              

      11A     -0.021146    12A     -0.005734    13A      0.030918  
      14A      0.037055    15A      0.042821    16A      0.065616  
      17A      0.076860    18A      0.084718    19A      0.105690  
      20A      0.111620    21A      0.115638    22A      0.119943  
      23A      0.140724    24A      0.143189    25A      0.154220  
      26A      0.162940    27A      0.172889    28A      0.188760  
      29A      0.193339    30A      0.200733    31A      0.222839  
      32A      0.228817    33A      0.239451    34A      0.253002  
      35A      0.274208    36A      0.281653    37A      0.285561  
      38A      0.294519    39A      0.308844    40A      0.319000  
      41A      0.330610    42A      0.342324    43A      0.346279  
      44A      0.352918    45A      0.362270    46A      0.371165  
      47A      0.387291    48A      0.399522    49A      0.416536  
      50A      0.418533    51A      0.475947    52A      0.482060  
      53A      0.511876    54A      0.561746    55A      0.566889  
      56A      0.591612    57A      0.611152    58A      0.620211  
      59A      0.626647    60A      0.637533    61A      0.644700  
      62A      0.681462    63A      0.705941    64A      0.710998  
      65A      0.725261    66A      0.742109    67A      0.759200  
      68A      0.770846    69A      0.781244    70A      0.790958  
      71A      0.796166    72A      0.815629    73A      0.830088  
      74A      0.837529    75A      0.849160    76A      0.859321  
      77A      0.864037    78A      0.876321    79A      0.882728  
      80A      0.886578    81A      0.898390    82A      0.902944  
      83A      0.934977    84A      0.938869    85A      0.943899  
      86A      0.957785    87A      0.974934    88A      0.984415  
      89A      0.994354    90A      1.011793    91A      1.022410  
      92A      1.036313    93A      1.053419    94A      1.067913  
      95A      1.088989    96A      1.111303    97A      1.125648  
      98A      1.139500    99A      1.159988   100A      1.187288  
     101A      1.193807   102A      1.206196   103A      1.231296  
     104A      1.243224   105A      1.294858   106A      1.321091  
     107A      1.356767   108A      1.376557   109A      1.384515  
     110A      1.404611   111A      1.421766   112A      1.448028  
     113A      1.469561   114A      1.483766   115A      1.500999  
     116A      1.541502   117A      1.591582   118A      1.613181  
     119A      1.684943   120A      1.706073   121A      1.715407  
     122A      1.762748   123A      1.772919   124A      1.790707  
     125A      1.813225   126A      1.842592   127A      1.859809  
     128A      1.909789   129A      1.937161   130A      1.963554  
     131A      2.007338   132A      2.027024   133A      2.097953  
     134A      2.102632   135A      2.146132   136A      2.180148  
     137A      2.199232   138A      2.241396   139A      2.273456  
     140A      2.290923   141A      2.303948   142A      2.320105  
     143A      2.326822   144A      2.349176   145A      2.380568  
     146A      2.408597   147A      2.459639   148A      2.472562  
     149A      2.529924   150A      2.548163   151A      2.552264  
     152A      2.573275   153A      2.594208   154A      2.634198  
     155A      2.644542   156A      2.680680   157A      2.703018  
     158A      2.731516   159A      2.748001   160A      2.780748  
     161A      2.792058   162A      2.834161   163A      2.871981  
     164A      2.994810   165A      3.028874   166A      3.142274  
     167A      3.186203   168A      3.246653   169A      3.257698  
     170A      3.395805   171A      3.440146   172A      3.519783  
     173A      3.562121   174A      3.623311   175A      3.652769  
     176A      3.713191   177A      3.851206   178A      3.879165  
     179A      3.912925   180A      3.938536   181A      3.957131  
     182A      4.067748   183A      4.101141   184A      4.128868  
     185A      4.186714   186A      4.198227   187A      4.212961  
     188A      4.261073   189A      4.266150   190A      4.275399  
     191A      4.277435   192A      4.330429   193A      4.342834  
     194A      4.378386   195A      4.423211   196A      4.440528  
     197A      4.469154   198A      4.494926   199A      4.561810  
     200A      4.599140   201A      4.620965   202A      4.646929  
     203A      4.681604   204A      4.776135   205A      4.848005  
     206A      4.945883   207A      4.987507   208A      4.997489  
     209A      5.014792   210A      5.032814   211A      5.039068  
     212A      5.088539   213A      5.110527   214A      5.170649  
     215A      5.194536   216A      5.225045   217A      5.287019  
     218A      5.291465   219A      5.313543   220A      5.452999  
     221A      5.485939   222A      5.539237   223A      5.587049  
     224A      5.800148   225A      5.870328   226A      5.955801  
     227A      6.026398   228A      6.249735   229A      6.270354  
     230A      6.284566   231A      6.361900   232A      6.439862  
     233A      6.494090   234A      6.634875   235A      6.657324  
     236A      6.771990   237A      6.841128   238A      6.850744  
     239A      6.882231   240A      6.937324   241A      6.957757  
     242A      6.963210   243A      6.972039   244A      7.000841  
     245A      7.032618   246A      7.070724   247A      7.097698  
     248A      7.099686   249A      7.138488   250A      7.185243  
     251A      7.367157   252A      7.539002   253A      7.597171  
     254A      7.654760   255A      7.707202   256A      7.983119  
     257A      8.045287   258A      8.236864   259A      8.263090  
     260A      8.401969   261A      8.461796   262A      8.482662  
     263A      8.795153   264A      8.861048   265A      9.926666  
     266A     10.049395   267A     10.130279   268A     10.621633  
     269A     11.135097   270A     11.772648   271A     12.299354  
     272A     13.449294   273A     13.905702   274A     14.626856  
     275A     15.525315   276A     65.314164  

    Final Occupation by Irrep:
              A 
    DOCC [    10 ]
    NA   [    10 ]
    NB   [    10 ]

  @DF-RKS Final Energy:  -152.86079275627552

   => Energetics <=

    Nuclear Repulsion Energy =             26.6308295697753472
    One-Electron Energy =                -262.6471662137712428
    Two-Electron Energy =                 101.7113866282543881
    DFT Exchange-Correlation Energy =     -18.5558172805340256
    Empirical Dispersion Energy =          -0.0000254600000000
    VV10 Nonlocal Energy =                  0.0000000000000000
    Total Energy =                       -152.8607927562755151

Computation Completed


Properties will be evaluated at   0.000000,   0.000000,   0.000000 [a0]

Properties computed using the SCF density matrix


[...]
    DFT Exchange-Correlation Energy =      -9.2781573394606305
    Empirical Dispersion Energy =          -0.0000001800000000
    VV10 Nonlocal Energy =                  0.0000000000000000
    Total Energy =                        -76.4299289602394509

Computation Completed


Properties will be evaluated at   0.000000,   0.000000,   0.000000 [a0]

Properties computed using the SCF density matrix


 Multipole Moments:

 ------------------------------------------------------------------------------------
     Multipole            Electronic (a.u.)      Nuclear  (a.u.)        Total (a.u.)
 ------------------------------------------------------------------------------------

 L = 1.  Multiply by 2.5417464519 to convert [e a0] to [Debye]
 Dipole X            :        -37.4063895           37.3495294           -0.0568601
 Dipole Y            :        -17.7344606           18.4269953            0.6925347
 Dipole Z            :         27.7809330          -27.8425770           -0.0616440
 Magnitude           :                                                    0.6975939

 ------------------------------------------------------------------------------------

*** tstop() called on d-19-15-2 at Mon Sep 18 03:02:24 2023
Module time:
	user time   =      22.12 seconds =       0.37 minutes
	system time =       0.04 seconds =       0.00 minutes
	total time  =         23 seconds =       0.38 minutes
Total time:
	user time   =   30661.79 seconds =     511.03 minutes
	system time =   14814.90 seconds =     246.91 minutes
	total time  =      51240 seconds =     854.00 minutes

    Psi4 stopped on: Monday, 18 September 2023 03:02AM
    Psi4 wall time for execution: 0:00:22.29


    -----------------------------------------------------------------------
          Psi4: An Open-Source Ab Initio Electronic Structure Package
                               Psi4 1.7 release

                         Git: Rev {HEAD} 6ce35a5 


    D. G. A. Smith, L. A. Burns, A. C. Simmonett, R. M. Parrish,
    M. C. Schieber, R. Galvelis, P. Kraus, H. Kruse, R. Di Remigio,
    A. Alenaizan, A. M. James, S. Lehtola, J. P. Misiewicz, M. Scheurer,
    R. A. Shaw, J. B. Schriber, Y. Xie, Z. L. Glick, D. A. Sirianni,
    J. S. O'Brien, J. M. Waldrop, A. Kumar, E. G. Hohenstein,
    B. P. Pritchard, B. R. Brooks, H. F. Schaefer III, A. Yu. Sokolov,
    K. Patkowski, A. E. DePrince III, U. Bozkaya, R. A. King,
    F. A. Evangelista, J. M. Turney, T. D. Crawford, C. D. Sherrill,
    J. Chem. Phys. 152(18) 184108 (2020). https://doi.org/10.1063/5.0006002

                            Additional Code Authors
    E. T. Seidl, C. L. Janssen, E. F. Valeev, M. L. Leininger,
    J. F. Gonthier, R. M. Richard, H. R. McAlexander, M. Saitow, X. Wang,
    P. Verma, M. H. Lechner, A. Jiang, S. Behnle, A. G. Heide,
    M. F. Herbst, and D. L. Poole

             Previous Authors, Complete List of Code Contributors,
                       and Citations for Specific Modules
    https://github.com/psi4/psi4/blob/master/codemeta.json
    https://github.com/psi4/psi4/graphs/contributors
    http://psicode.org/psi4manual/master/introduction.html#citing-psifour

    -----------------------------------------------------------------------


    Psi4 started on: Sunday, 17 September 2023 12:48PM

    Process ID: 258105
    Host:       d-19-15-2
    PSIDATADIR: /home/gridsan/kfisher/.conda/envs/p4env/share/psi4
    Memory:     18.6 GiB
    Threads:    1
    
  ==> Input QCSchema <==

--------------------------------------------------------------------------
{'driver': 'energy',
 'extras': {'psiapi': True, 'wfn_qcvars_only': True},
 'id': None,
 'keywords': {'D_CONVERGENCE': 1e-10, 'E_CONVERGENCE': 1e-10, 'function_kwargs': {'dft_functional': 'scan-d3zero2b'}},
 'model': {'basis': 'aug-cc-pvtz', 'method': 'scf'},
 'molecule': {'atom_labels': ['', '', '', '', '', ''],
              'atomic_numbers': [1, 1, 8, 1, 1, 8],
              'fix_com': True,
              'fix_orientation': True,
              'fix_symmetry': 'c1',
              'fragment_charges': [0.0, 0.0],
              'fragment_multiplicities': [1, 1],
              'fragments': [[0, 1, 2], [3, 4, 5]],
              'geometry': [4.400977031968829, 2.8541305625911826, -1.5559415511441226, 2.926392121156006,
                           2.534748611531699, -4.168538488660688, 3.7527700361201193, 1.6297645148173667,
                           -2.764762125994824, -1.702870818754792, 5.990171866975498, -3.507360450481358,
                           0.5316601590680515, 6.332357218779926, -5.316333344057006, -0.11223272431706587,
                           6.900311911347789, -3.643370918333655],
              'mass_numbers': [1, 1, 16, 1, 1, 16],
              'masses': [1.00782503223, 1.00782503223, 15.99491461957, 1.00782503223, 1.00782503223, 15.99491461957],
              'molecular_charge': 0.0,
              'molecular_multiplicity': 1,
              'name': 'H4O2',
              'provenance': {'creator': 'QCElemental',
                             'routine': 'qcelemental.molparse.from_string',
                             'version': 'v0.25.1'},
              'real': [True, True, True, True, True, True],
              'schema_name': 'qcschema_molecule',
              'schema_version': 2,
              'symbols': ['H', 'H', 'O', 'H', 'H', 'O'],
              'validated': True},
 'protocols': {'stdout': True},
 'provenance': {'creator': 'QCElemental', 'routine': 'qcelemental.models.results', 'version': 'v0.25.1'},
 'schema_name': 'qcschema_input',
 'schema_version': 1}
--------------------------------------------------------------------------

Scratch directory: /home/gridsan/kfisher/scratch/

*** tstart() called on d-19-15-2
*** at Mon Sep 18 03:02:24 2023

   => Loading Basis Set <=

    Name: AUG-CC-PVTZ
    Role: ORBITAL
    Keyword: BASIS
    atoms 1-2, 4-5 entry H          line    40 file /home/gridsan/kfisher/.conda/envs/p4env/share/psi4/basis/aug-cc-pvtz.gbs 
    atoms 3, 6     entry O          line   331 file /home/gridsan/kfisher/.conda/envs/p4env/share/psi4/basis/aug-cc-pvtz.gbs 

   => SCAN-D3: Empirical Dispersion <=

    Grimme's -D3 (zero-damping) Dispersion Correction
    Grimme S.; Antony J.; Ehrlich S.; Krieg H. (2010), J. Chem. Phys., 132: 154104
    Parametrisation from:    J.G. Brandenburg, J. E. Bates, J. Sun, J.P. Perdew, Phys. Rev. B 94, 115144, 2016

        s6 =       1.000000
        s8 =       0.000000
       sr6 =       1.324000
    alpha6 =      14.000000
       sr8 =       1.000000


         ---------------------------------------------------------
                                   SCF
               by Justin Turney, Rob Parrish, Andy Simmonett
                          and Daniel G. A. Smith
                              RKS Reference
                        1 Threads,  19073 MiB Core
         ---------------------------------------------------------

  ==> Geometry <==

    Molecular point group: c1
    Full point group: C1

    Geometry (in Bohr), charge = 0, multiplicity = 1:

       Center              X                  Y                   Z               Mass       
    ------------   -----------------  -----------------  -----------------  -----------------
         H            4.400977031969     2.854130562591    -1.555941551144     1.007825032230
         H            2.926392121156     2.534748611532    -4.168538488661     1.007825032230
         O            3.752770036120     1.629764514817    -2.764762125995    15.994914619570
         H           -1.702870818755     5.990171866975    -3.507360450481     1.007825032230
         H            0.531660159068     6.332357218780    -5.316333344057     1.007825032230
         O           -0.112232724317     6.900311911348    -3.643370918334    15.994914619570

  Running in c1 symmetry.

  Rotational constants: A =      0.22141  B =      0.04695  C =      0.03907 [cm^-1]
  Rotational constants: A =   6637.58729  B =   1407.41273  C =   1171.20128 [MHz]
  Nuclear repulsion =   33.482145313772797

  Charge       = 0
  Multiplicity = 1
  Electrons    = 20
  Nalpha       = 10
  Nbeta        = 10

  ==> Algorithm <==

  SCF Algorithm Type is DF.
  DIIS enabled.
  MOM disabled.
  Fractional occupation disabled.
  Guess Type is SAD.
  Energy threshold   = 1.00e-10
  Density threshold  = 1.00e-10
  Integral threshold = 1.00e-12

  ==> Primary Basis <==

  Basis Set: AUG-CC-PVTZ
    Blend: AUG-CC-PVTZ
    Number of shells: 64
    Number of basis functions: 184
    Number of Cartesian functions: 210
    Spherical Harmonics?: true
    Max angular momentum: 3

  ==> DFT Potential <==

   => Composite Functional: SCAN-D3ZERO2B <= 

    SCAN Meta-GGA XC Functional
(10.1103/PhysRevLett.115.036402)
    J. Sun, A. Ruzsinszky, J. P. Perdew  Phys. Rev. Lett. 115, 036402, 2015


    Deriv               =              1
    GGA                 =           TRUE
    Meta                =           TRUE

    Exchange Hybrid     =          FALSE
    MP2 Hybrid          =          FALSE

   => Exchange Functionals <=

    1.0000   XC_MGGA_X_SCAN

   => Correlation Functionals <=

    1.0000   XC_MGGA_C_SCAN

   => LibXC Density Thresholds  <==

    XC_MGGA_C_SCAN:  1.00E-15 
    XC_MGGA_X_SCAN:  1.00E-15 

   => Molecular Quadrature <=

    Radial Scheme          =       TREUTLER
    Pruning Scheme         =           NONE
    Nuclear Scheme         =       TREUTLER

    Blocking Scheme        =         OCTREE
    BS radius alpha        =              1
    Pruning alpha          =              1
    Radial Points          =             75
    Spherical Points       =            302
    Total Points           =         132742
    Total Blocks           =           1040
    Max Points             =            256
    Max Functions          =            184
    Weights Tolerance      =       1.00E-15

   => Loading Basis Set <=

    Name: (AUG-CC-PVTZ AUX)
    Role: JKFIT
    Keyword: DF_BASIS_SCF
    atoms 1-2, 4-5 entry H          line    70 file /home/gridsan/kfisher/.conda/envs/p4env/share/psi4/basis/aug-cc-pvtz-jkfit.gbs 
    atoms 3, 6     entry O          line   286 file /home/gridsan/kfisher/.conda/envs/p4env/share/psi4/basis/aug-cc-pvtz-jkfit.gbs 

  ==> Integral Setup <==

  DFHelper Memory: AOs need 0.105 GiB; user supplied 12.516 GiB. Using in-core AOs.

  ==> MemDFJK: Density-Fitted J/K Matrices <==

    J tasked:                   Yes
    K tasked:                    No
    wK tasked:                   No
    OpenMP threads:               1
    Memory [MiB]:             12816
    Algorithm:                 Core
    Schwarz Cutoff:           1E-12
    Mask sparsity (%):       2.3157
    Fitting Condition:        1E-10

   => Auxiliary Basis Set <=

  Basis Set: (AUG-CC-PVTZ AUX)
    Blend: AUG-CC-PVTZ-JKFIT
    Number of shells: 116
    Number of basis functions: 392
    Number of Cartesian functions: 482
    Spherical Harmonics?: true
    Max angular momentum: 4

  Cached 100.0% of DFT collocation blocks in 1.454 [GiB].

  Minimum eigenvalue in the overlap matrix is 3.1653431930E-04.
  Reciprocal condition number of the overlap matrix is 3.6480935134E-05.
    Using symmetric orthogonalization.

  ==> Pre-Iterations <==

  SCF Guess: Superposition of Atomic Densities via on-the-fly atomic UHF (no occupation information).

   -------------------------
    Irrep   Nso     Nmo    
   -------------------------
     A        184     184 
   -------------------------
    Total     184     184
   -------------------------

  ==> Iterations <==

                           Total Energy        Delta E     RMS |[F,P]|

   @DF-RKS iter SAD:  -152.12147727195372   -1.52121e+02   0.00000e+00 
   @DF-RKS iter   1:  -152.49231189471794   -3.70835e-01   5.55816e-03 DIIS/ADIIS
   @DF-RKS iter   2:  -151.36726835448957    1.12504e+00   1.04757e-02 DIIS/ADIIS
   @DF-RKS iter   3:  -152.85928753059565   -1.49202e+00   3.32146e-04 DIIS/ADIIS
   @DF-RKS iter   4:  -152.86107951010905   -1.79198e-03   6.44216e-05 DIIS
   @DF-RKS iter   5:  -152.86112367047087   -4.41604e-05   2.55770e-05 DIIS
   @DF-RKS iter   6:  -152.86112875053462   -5.08006e-06   1.59845e-05 DIIS
   @DF-RKS iter   7:  -152.86113170266179   -2.95213e-06   2.14716e-06 DIIS
   @DF-RKS iter   8:  -152.86113175739064   -5.47288e-08   3.88141e-07 DIIS
   @DF-RKS iter   9:  -152.86113175939184   -2.00120e-09   4.98106e-08 DIIS
   @DF-RKS iter  10:  -152.86113175942515   -3.33102e-11   3.63784e-09 DIIS
   @DF-RKS iter  11:  -152.86113175942526   -1.13687e-13   7.85439e-10 DIIS
   @DF-RKS iter  12:  -152.86113175942498    2.84217e-13   1.34071e-10 DIIS
   @DF-RKS iter  13:  -152.86113175942504   -5.68434e-14   2.69669e-11 DIIS
  Energy and wave function converged.


  ==> Post-Iterations <==

   Electrons on quadrature grid:
      Ntotal   =   20.0000000496 ; deviation = 4.963e-08 

    Orbital Energies [Eh]
    ---------------------

    Doubly Occupied:                                                      

       1A    -18.986283     2A    -18.965388     3A     -0.987200  
       4A     -0.966775     5A     -0.502347     6A     -0.497048  
       7A     -0.373802     8A     -0.344624     9A     -0.292019  
      10A     -0.272819  

    Virtual:                                                              

      11A     -0.034110    12A      0.014218    13A      0.025355  
      14A      0.039665    15A      0.068760    16A      0.093361  
      17A      0.106308    18A      0.110546    19A      0.125549  
      20A      0.135717    21A      0.143728    22A      0.155008  
      23A      0.167321    24A      0.190481    25A      0.196307  
      26A      0.208137    27A      0.215172    28A      0.230595  
      29A      0.255386    30A      0.285958    31A      0.308840  
      32A      0.321993    33A      0.325074    34A      0.341318  
      35A      0.356580    36A      0.372230    37A      0.382126  
      38A      0.449707    39A      0.490367    40A      0.509018  
      41A      0.528149    42A      0.555537    43A      0.587691  
      44A      0.595452    45A      0.609950    46A      0.612655  
      47A      0.631835    48A      0.674255    49A      0.698447  
      50A      0.729004    51A      0.748453    52A      0.768368  
      53A      0.786047    54A      0.788276    55A      0.805242  
      56A      0.833671    57A      0.841526    58A      0.854814  
      59A      0.867272    60A      0.881177    61A      0.889500  
      62A      0.918064    63A      0.941711    64A      0.947936  
      65A      0.956637    66A      1.016509    67A      1.020713  
      68A      1.039904    69A      1.067089    70A      1.081999  
      71A      1.102127    72A      1.108082    73A      1.154240  
      74A      1.169187    75A      1.196440    76A      1.219002  
      77A      1.286373    78A      1.352628    79A      1.378922  
      80A      1.412842    81A      1.429975    82A      1.467686  
      83A      1.495541    84A      1.546693    85A      1.648919  
      86A      1.666112    87A      1.685743    88A      1.729590  
      89A      1.807598    90A      1.858130    91A      1.937189  
      92A      1.974096    93A      2.051117    94A      2.086508  
      95A      2.128373    96A      2.152952    97A      2.165878  
      98A      2.192869    99A      2.221211   100A      2.242195  
     101A      2.281943   102A      2.288379   103A      2.310962  
     104A      2.393645   105A      2.411653   106A      2.430540  
     107A      2.522285   108A      2.553914   109A      2.559772  
     110A      2.575815   111A      2.609914   112A      2.635085  
     113A      2.670769   114A      2.724143   115A      2.746102  
     116A      2.800156   117A      3.430338   118A      3.464491  
     119A      3.538373   120A      3.572174   121A      3.759652  
     122A      3.815583   123A      3.908643   124A      3.933470  
     125A      4.045247   126A      4.088817   127A      4.103129  
     128A      4.112900   129A      4.175763   130A      4.219111  
     131A      4.226019   132A      4.253302   133A      4.258669  
     134A      4.272317   135A      4.297094   136A      4.327901  
     137A      4.349453   138A      4.402127   139A      4.428307  
     140A      4.463298   141A      4.572568   142A      4.590772  
     143A      4.931289   144A      4.993707   145A      5.004946  
     146A      5.026110   147A      5.044740   148A      5.070130  
     149A      5.090728   150A      5.146611   151A      5.250556  
     152A      5.280999   153A      5.439932   154A      5.517721  
     155A      5.875301   156A      5.937726   157A      6.244614  
     158A      6.287145   159A      6.421515   160A      6.477160  
     161A      6.565682   162A      6.627550   163A      6.810516  
     164A      6.829266   165A      6.865030   166A      6.901061  
     167A      6.922664   168A      6.941808   169A      6.956587  
     170A      6.978892   171A      6.996489   172A      7.030898  
     173A      7.064003   174A      7.116255   175A      7.171943  
     176A      7.251658   177A      7.525393   178A      7.575339  
     179A      7.592453   180A      7.648380   181A      8.369924  
     182A      8.389160   183A     14.583313   184A     14.824540  

    Final Occupation by Irrep:
              A 
    DOCC [    10 ]
    NA   [    10 ]
    NB   [    10 ]

  @DF-RKS Final Energy:  -152.86113175942504

   => Energetics <=

    Nuclear Repulsion Energy =             33.4821453137727971
    One-Electron Energy =                -276.3048393826855431
    Two-Electron Energy =                 108.5164909513682261
    DFT Exchange-Correlation Energy =     -18.5546545718805369
    Empirical Dispersion Energy =          -0.0002740700000000
    VV10 Nonlocal Energy =                  0.0000000000000000
    Total Energy =                       -152.8611317594250352

Computation Completed


Properties will be evaluated at   0.000000,   0.000000,   0.000000 [a0]

Properties computed using the SCF density matrix


 Multipole Moments:

 ------------------------------------------------------------------------------------
     Multipole            Electronic (a.u.)      Nuclear  (a.u.)        Total (a.u.)
 ------------------------------------------------------------------------------------

 L = 1.  Multiply by 2.5417464519 to convert [e a0] to [Debye]
 Dipole X            :        -35.6814775           35.2804570           -0.4010205
 Dipole Y            :        -85.6788091           85.9520197            0.2732106
 Dipole Z            :         65.3066972          -65.8132382           -0.5065410
 Magnitude           :                                                    0.7014594

 ------------------------------------------------------------------------------------

*** tstop() called on d-19-15-2 at Mon Sep 18 03:02:49 2023
Module time:
	user time   =      25.46 seconds =       0.42 minutes
	system time =       0.05 seconds =       0.00 minutes
	total time  =         25 seconds =       0.42 minutes
Total time:
	user time   =   30687.31 seconds =     511.46 minutes
	system time =   14814.95 seconds =     246.92 minutes
	total time  =      51265 seconds =     854.42 minutes

    Psi4 stopped on: Monday, 18 September 2023 03:02AM
    Psi4 wall time for execution: 0:00:25.65


  //>>>>>>>>>>>>>>>>>>>>>>>>>>>>>>>>>>>//
  //          ManyBody Results         //
  //<<<<<<<<<<<<<<<<<<<<<<<<<<<<<<<<<<<//


   ==> N-Body: Counterpoise Corrected (CP) energies <==

        n-Body     Total Energy            Interaction Energy                          N-body Contribution to Interaction Energy
                   [Eh]                    [Eh]                  [kcal/mol]            [Eh]                  [kcal/mol]
             1  N/A                         0.000000000000        0.000000000000        0.000000000000        0.000000000000
  FULL/RTN   2  N/A                        -0.001003189931       -0.629511185539       -0.001003189931       -0.629511185539


