
Scratch directory: /home/gridsan/kfisher/scratch/

  //>>>>>>>>>>>>>>>>>>>>>>>>>>>>>>>>>>>>>>>>//
  // ManyBody Setup: N-Body Levels [1, 2, 3]//
  //<<<<<<<<<<<<<<<<<<<<<<<<<<<<<<<<<<<<<<<<//

        Number of 1-body computations:     3
        Number of 2-body computations:     3
        Number of 3-body computations:     1

    -----------------------------------------------------------------------
          Psi4: An Open-Source Ab Initio Electronic Structure Package
                               Psi4 1.7 release

                         Git: Rev {HEAD} 6ce35a5 


    D. G. A. Smith, L. A. Burns, A. C. Simmonett, R. M. Parrish,
    M. C. Schieber, R. Galvelis, P. Kraus, H. Kruse, R. Di Remigio,
    A. Alenaizan, A. M. James, S. Lehtola, J. P. Misiewicz, M. Scheurer,
    R. A. Shaw, J. B. Schriber, Y. Xie, Z. L. Glick, D. A. Sirianni,
    J. S. O'Brien, J. M. Waldrop, A. Kumar, E. G. Hohenstein,
    B. P. Pritchard, B. R. Brooks, H. F. Schaefer III, A. Yu. Sokolov,
    K. Patkowski, A. E. DePrince III, U. Bozkaya, R. A. King,
    F. A. Evangelista, J. M. Turney, T. D. Crawford, C. D. Sherrill,
    J. Chem. Phys. 152(18) 184108 (2020). https://doi.org/10.1063/5.0006002

                            Additional Code Authors
    E. T. Seidl, C. L. Janssen, E. F. Valeev, M. L. Leininger,
    J. F. Gonthier, R. M. Richard, H. R. McAlexander, M. Saitow, X. Wang,
    P. Verma, M. H. Lechner, A. Jiang, S. Behnle, A. G. Heide,
    M. F. Herbst, and D. L. Poole

             Previous Authors, Complete List of Code Contributors,
                       and Citations for Specific Modules
    https://github.com/psi4/psi4/blob/master/codemeta.json
    https://github.com/psi4/psi4/graphs/contributors
    http://psicode.org/psi4manual/master/introduction.html#citing-psifour

    -----------------------------------------------------------------------


    Psi4 started on: Sunday, 17 September 2023 12:48PM

    Process ID: 258105
    Host:       d-19-15-2
    PSIDATADIR: /home/gridsan/kfisher/.conda/envs/p4env/share/psi4
    Memory:     18.6 GiB
    Threads:    1
    
  ==> Input QCSchema <==

--------------------------------------------------------------------------
{'driver': 'energy',
 'extras': {'psiapi': True, 'wfn_qcvars_only': True},
 'id': None,
 'keywords': {'D_CONVERGENCE': 1e-10, 'E_CONVERGENCE': 1e-10, 'function_kwargs': {'dft_functional': 'scan-d3zero2b'}},
 'model': {'basis': 'aug-cc-pvtz', 'method': 'scf'},
 'molecule': {'atom_labels': ['', '', '', '', '', '', '', '', ''],
              'atomic_numbers': [1, 1, 8, 1, 1, 8, 1, 1, 8],
              'fix_com': True,
              'fix_orientation': True,
              'fix_symmetry': 'c1',
              'fragment_charges': [0.0, 0.0, 0.0],
              'fragment_multiplicities': [1, 1, 1],
              'fragments': [[0, 1, 2], [3, 4, 5], [6, 7, 8]],
              'geometry': [-3.944864211663501, -1.6329459065440974, 0.07821570764091575, -4.35884836589915,
                           -0.24363849651945932, -2.561801174853303, -3.0783544853292195, -1.110817960689864,
                           -1.4589409642613096, 0.027445229513212967, 1.067237947161312, -1.6182803090022568,
                           1.4611229554293308, 3.250870682473111, -3.068137321983968, 1.7250798628387578,
                           1.676697431615796, -2.081599977832243, -0.39048078003657394, 5.885079926357744,
                           -5.114329879348733, -1.9570167027578507, 6.524138947005723, -2.7667346788163605,
                           -0.2757768419679856, 6.73140503441174, -3.5055041158165374],
              'mass_numbers': [1, 1, 16, 1, 1, 16, 1, 1, 16],
              'masses': [1.00782503223, 1.00782503223, 15.99491461957, 1.00782503223, 1.00782503223, 15.99491461957,
                         1.00782503223, 1.00782503223, 15.99491461957],
              'molecular_charge': 0.0,
              'molecular_multiplicity': 1,
              'name': 'H6O3',
              'provenance': {'creator': 'QCElemental',
                             'routine': 'qcelemental.molparse.from_string',
                             'version': 'v0.25.1'},
              'real': [True, True, True, False, False, False, False, False, False],
              'schema_name': 'qcschema_molecule',
              'schema_version': 2,
              'symbols': ['H', 'H', 'O', 'H', 'H', 'O', 'H', 'H', 'O'],
              'validated': True},
 'protocols': {'stdout': True},
 'provenance': {'creator': 'QCElemental', 'routine': 'qcelemental.models.results', 'version': 'v0.25.1'},
 'schema_name': 'qcschema_input',
 'schema_version': 1}
--------------------------------------------------------------------------

Scratch directory: /home/gridsan/kfisher/scratch/

*** tstart() called on d-19-15-2
*** at Tue Sep 19 07:14:41 2023

   => Loading Basis Set <=

    Name: AUG-CC-PVTZ
    Role: ORBITAL
    Keyword: BASIS
    atoms 1-2, 4-5, 7-8 entry H          line    40 file /home/gridsan/kfisher/.conda/envs/p4env/share/psi4/basis/aug-cc-pvtz.gbs 
    atoms 3, 6, 9       entry O          line   331 file /home/gridsan/kfisher/.conda/envs/p4env/share/psi4/basis/aug-cc-pvtz.gbs 

   => SCAN-D3: Empirical Dispersion <=

    Grimme's -D3 (zero-damping) Dispersion Correction
    Grimme S.; Antony J.; Ehrlich S.; Krieg H. (2010), J. Chem. Phys., 132: 154104
    Parametrisation from:    J.G. Brandenburg, J. E. Bates, J. Sun, J.P. Perdew, Phys. Rev. B 94, 115144, 2016

        s6 =       1.000000
        s8 =       0.000000
       sr6 =       1.324000
    alpha6 =      14.000000
       sr8 =       1.000000


         ---------------------------------------------------------
                                   SCF
               by Justin Turney, Rob Parrish, Andy Simmonett
                          and Daniel G. A. Smith
                              RKS Reference
                        1 Threads,  19073 MiB Core
         ---------------------------------------------------------

  ==> Geometry <==

    Molecular point group: c1
    Full point group: C1

    Geometry (in Bohr), charge = 0, multiplicity = 1:

       Center              X                  Y                   Z               Mass       
    ------------   -----------------  -----------------  -----------------  -----------------
         H           -3.944864211664    -1.632945906544     0.078215707641     1.007825032230
         H           -4.358848365899    -0.243638496519    -2.561801174853     1.007825032230
         O           -3.078354485329    -1.110817960690    -1.458940964261    15.994914619570
      Gh(H)           0.027445229513     1.067237947161    -1.618280309002     1.007825032230
      Gh(H)           1.461122955429     3.250870682473    -3.068137321984     1.007825032230
      Gh(O)           1.725079862839     1.676697431616    -2.081599977832    15.994914619570
      Gh(H)          -0.390480780037     5.885079926358    -5.114329879349     1.007825032230
      Gh(H)          -1.957016702758     6.524138947006    -2.766734678816     1.007825032230
      Gh(O)          -0.275776841968     6.731405034412    -3.505504115817    15.994914619570

  Running in c1 symmetry.

  Rotational constants: A =      0.18796  B =      0.04982  C =      0.04229 [cm^-1]
  Rotational constants: A =   5634.82512  B =   1493.70802  C =   1267.96385 [MHz]
  Nuclear repulsion =    8.891107021020584

  Charge       = 0
  Multiplicity = 1
  Electrons    = 10
  Nalpha       = 5
  Nbeta        = 5

  ==> Algorithm <==

  SCF Algorithm Type is DF.
  DIIS enabled.
  MOM disabled.
  Fractional occupation disabled.
  Guess Type is SAD.
  Energy threshold   = 1.00e-10
  Density threshold  = 1.00e-10
  Integral threshold = 1.00e-12

  ==> Primary Basis <==

  Basis Set: AUG-CC-PVTZ
    Blend: AUG-CC-PVTZ
    Number of shells: 96
    Number of basis functions: 276
    Number of Cartesian functions: 315
    Spherical Harmonics?: true
    Max angular momentum: 3

  ==> DFT Potential <==

   => Composite Functional: SCAN-D3ZERO2B <= 

    SCAN Meta-GGA XC Functional
(10.1103/PhysRevLett.115.036402)
    J. Sun, A. Ruzsinszky, J. P. Perdew  Phys. Rev. Lett. 115, 036402, 2015


    Deriv               =              1
    GGA                 =           TRUE
    Meta                =           TRUE

    Exchange Hybrid     =          FALSE
    MP2 Hybrid          =          FALSE

   => Exchange Functionals <=

    1.0000   XC_MGGA_X_SCAN

   => Correlation Functionals <=

    1.0000   XC_MGGA_C_SCAN

   => LibXC Density Thresholds  <==

    XC_MGGA_C_SCAN:  1.00E-15 
    XC_MGGA_X_SCAN:  1.00E-15 

   => Molecular Quadrature <=

    Radial Scheme          =       TREUTLER
    Pruning Scheme         =           NONE
    Nuclear Scheme         =       TREUTLER

    Blocking Scheme        =         OCTREE
    BS radius alpha        =              1
    Pruning alpha          =              1
    Radial Points          =             75
    Spherical Points       =            302
    Total Points           =         197795
    Total Blocks           =           1517
    Max Points             =            256
    Max Functions          =            276
    Weights Tolerance      =       1.00E-15

   => Loading Basis Set <=

    Name: (AUG-CC-PVTZ AUX)
    Role: JKFIT
    Keyword: DF_BASIS_SCF
    atoms 1-2, 4-5, 7-8 entry H          line    70 file /home/gridsan/kfisher/.conda/envs/p4env/share/psi4/basis/aug-cc-pvtz-jkfit.gbs 
    atoms 3, 6, 9       entry O          line   286 file /home/gridsan/kfisher/.conda/envs/p4env/share/psi4/basis/aug-cc-pvtz-jkfit.gbs 

  ==> Integral Setup <==

  DFHelper Memory: AOs need 0.335 GiB; user supplied 10.988 GiB. Using in-core AOs.

  ==> MemDFJK: Density-Fitted J/K Matrices <==

    J tasked:                   Yes
    K tasked:                    No
    wK tasked:                   No
    OpenMP threads:               1
    Memory [MiB]:             11252
    Algorithm:                 Core
    Schwarz Cutoff:           1E-12
    Mask sparsity (%):       5.1827
    Fitting Condition:        1E-10

   => Auxiliary Basis Set <=

  Basis Set: (AUG-CC-PVTZ AUX)
    Blend: AUG-CC-PVTZ-JKFIT
    Number of shells: 174
    Number of basis functions: 588
    Number of Cartesian functions: 723
    Spherical Harmonics?: true
    Max angular momentum: 4

  Cached 100.0% of DFT collocation blocks in 2.981 [GiB].

  Minimum eigenvalue in the overlap matrix is 2.0487947361E-04.
  Reciprocal condition number of the overlap matrix is 1.9192372663E-05.
    Using symmetric orthogonalization.

  ==> Pre-Iterations <==

  SCF Guess: Superposition of Atomic Densities via on-the-fly atomic UHF (no occupation information).

   -------------------------
    Irrep   Nso     Nmo    
   -------------------------
     A        276     276 
   -------------------------
    Total     276     276
   -------------------------

  ==> Iterations <==

                           Total Energy        Delta E     RMS |[F,P]|

   @DF-RKS iter SAD:   -76.04749965135983   -7.60475e+01   0.00000e+00 
   @DF-RKS iter   1:   -76.24207775269250   -1.94578e-01   2.63145e-03 DIIS/ADIIS
   @DF-RKS iter   2:   -75.61822493694220    6.23853e-01   5.10853e-03 DIIS/ADIIS
   @DF-RKS iter   3:   -76.42729598217929   -8.09071e-01   2.27144e-04 DIIS/ADIIS
   @DF-RKS iter   4:   -76.42916822974342   -1.87225e-03   2.79339e-05 DIIS
   @DF-RKS iter   5:   -76.42918742507854   -1.91953e-05   7.85531e-06 DIIS
   @DF-RKS iter   6:   -76.42918904728761   -1.62221e-06   5.22712e-07 DIIS
   @DF-RKS iter   7:   -76.42918905377056   -6.48295e-09   1.60522e-07 DIIS
   @DF-RKS iter   8:   -76.42918905449312   -7.22565e-10   4.46308e-08 DIIS
   @DF-RKS iter   9:   -76.42918905455612   -6.29967e-11   2.14129e-09 DIIS
   @DF-RKS iter  10:   -76.42918905455613   -1.42109e-14   1.74965e-10 DIIS
   @DF-RKS iter  11:   -76.42918905455606    7.10543e-14   2.42064e-11 DIIS
  Energy and wave function converged.


  ==> Post-Iterations <==

   Electrons on quadrature grid:
      Ntotal   =   10.0000006084 ; deviation = 6.084e-07 

    Orbital Energies [Eh]
    ---------------------

    Doubly Occupied:                                                      

       1A    -18.971472     2A     -0.968231     3A     -0.494608  
       4A     -0.350570     5A     -0.276833  

    Virtual:                                                              

       6A     -0.013409     7A      0.029398     8A      0.036599  
       9A      0.046432    10A      0.056257    11A      0.066386  
      12A      0.083984    13A      0.112359    14A      0.119716  
      15A      0.122656    16A      0.128776    17A      0.151302  
      18A      0.157310    19A      0.160476    20A      0.170156  
      21A      0.174043    22A      0.189854    23A      0.199332  
      24A      0.217577    25A      0.226122    26A      0.241240  
      27A      0.253912    28A      0.275841    29A      0.291304  
      30A      0.308755    31A      0.309014    32A      0.326554  
      33A      0.336301    34A      0.342610    35A      0.350659  
      36A      0.366185    37A      0.376114    38A      0.380391  
      39A      0.390510    40A      0.397936    41A      0.408828  
      42A      0.415789    43A      0.437437    44A      0.443740  
      45A      0.457729    46A      0.483410    47A      0.511971  
      48A      0.549011    49A      0.555948    50A      0.631866  
      51A      0.636241    52A      0.665723    53A      0.684196  
      54A      0.697742    55A      0.724536    56A      0.730976  
      57A      0.747493    58A      0.758211    59A      0.776522  
      60A      0.788097    61A      0.794157    62A      0.798956  
      63A      0.813361    64A      0.819439    65A      0.826827  
      66A      0.838082    67A      0.847247    68A      0.865358  
      69A      0.872732    70A      0.882829    71A      0.893772  
      72A      0.900826    73A      0.918953    74A      0.929584  
      75A      0.955640    76A      0.966637    77A      0.970334  
      78A      0.981088    79A      0.994246    80A      1.013312  
      81A      1.023050    82A      1.033283    83A      1.047543  
      84A      1.074032    85A      1.085623    86A      1.105397  
      87A      1.106893    88A      1.120899    89A      1.132287  
      90A      1.136517    91A      1.163166    92A      1.171183  
      93A      1.192146    94A      1.220918    95A      1.228804  
      96A      1.244548    97A      1.295087    98A      1.322665  
      99A      1.370357   100A      1.397420   101A      1.414354  
     102A      1.428809   103A      1.439717   104A      1.453359  
     105A      1.482896   106A      1.510967   107A      1.524346  
     108A      1.568107   109A      1.606865   110A      1.622228  
     111A      1.628943   112A      1.689777   113A      1.715647  
     114A      1.745567   115A      1.754936   116A      1.767293  
     117A      1.827754   118A      1.831725   119A      1.855911  
     120A      1.866487   121A      1.885018   122A      1.915525  
     123A      1.940975   124A      1.959273   125A      2.000285  
     126A      2.019406   127A      2.079155   128A      2.108488  
     129A      2.153905   130A      2.252374   131A      2.283413  
     132A      2.319084   133A      2.340754   134A      2.427360  
     135A      2.454285   136A      2.474514   137A      2.525624  
     138A      2.544565   139A      2.563467   140A      2.569074  
     141A      2.572274   142A      2.588358   143A      2.598379  
     144A      2.622692   145A      2.650109   146A      2.665045  
     147A      2.683555   148A      2.710121   149A      2.745781  
     150A      2.761614   151A      2.800953   152A      2.850294  
     153A      2.860015   154A      2.871529   155A      2.885197  
     156A      2.919655   157A      3.029300   158A      3.153479  
     159A      3.161147   160A      3.193075   161A      3.278040  
     162A      3.303529   163A      3.314330   164A      3.337413  
     165A      3.403314   166A      3.428976   167A      3.483749  
     168A      3.522385   169A      3.556608   170A      3.588593  
     171A      3.623780   172A      3.697196   173A      3.789109  
     174A      3.874748   175A      3.927844   176A      3.993395  
     177A      4.086665   178A      4.131790   179A      4.275416  
     180A      4.325027   181A      4.383145   182A      4.388369  
     183A      4.421020   184A      4.434245   185A      4.468947  
     186A      4.503538   187A      4.507596   188A      4.553760  
     189A      4.613032   190A      4.623913   191A      4.671733  
     192A      4.690632   193A      4.697901   194A      4.779537  
     195A      4.799121   196A      4.864602   197A      4.937608  
     198A      4.968131   199A      4.979261   200A      5.008959  
     201A      5.065612   202A      5.080348   203A      5.139526  
     204A      5.165295   205A      5.194889   206A      5.257015  
     207A      5.281456   208A      5.319765   209A      5.398414  
     210A      5.506868   211A      5.515586   212A      5.529011  
     213A      5.572953   214A      5.612107   215A      5.649049  
     216A      5.762357   217A      5.789330   218A      5.894747  
     219A      5.963455   220A      6.016329   221A      6.223831  
     222A      6.293738   223A      6.361211   224A      6.412805  
     225A      6.453188   226A      6.598209   227A      6.617685  
     228A      6.711317   229A      6.767778   230A      6.882951  
     231A      6.958348   232A      6.982357   233A      7.013483  
     234A      7.036011   235A      7.047525   236A      7.097367  
     237A      7.192048   238A      7.292946   239A      7.568731  
     240A      7.604943   241A      7.716573   242A      7.785176  
     243A      7.842004   244A      7.892150   245A      8.105080  
     246A      8.129799   247A      8.204511   248A      8.294420  
     249A      8.348251   250A      8.401799   251A      8.429190  
     252A      8.710636   253A      8.812380   254A      8.880205  
     255A      9.048798   256A      9.739172   257A      9.808217  
     258A      9.894440   259A      9.930078   260A     10.032094  
     261A     10.203896   262A     10.230547   263A     10.436823  
     264A     11.151453   265A     11.174412   266A     11.782227  
     267A     11.886858   268A     11.997999   269A     12.153233  
     270A     13.505351   271A     13.645133   272A     13.860058  
     273A     14.127425   274A     14.730603   275A     64.731647  
     276A     65.948868  

    Final Occupation by Irrep:
              A 
    DOCC [     5 ]
    NA   [     5 ]
    NB   [     5 ]

  @DF-RKS Final Energy:   -76.42918905455606

   => Energetics <=

    Nuclear Repulsion Energy =              8.8911070210205843
    One-Electron Energy =                -122.5200614792159541
    Two-Electron Energy =                  46.4691289980184123
    DFT Exchange-Correlation Energy =      -9.2693634143791108
    Empirical Dispersion Energy =          -0.0000001800000000
    VV10 Nonlocal Energy =                  0.0000000000000000
    Total Energy =                        -76.4291890545560761

Computation Completed


Properties will be evaluated at   0.000000,   0.000000,   0.000000 [a0]

Properties computed using the SCF density matrix


 Multipole Moments:

 ------------------------------------------------------------------------------------
     Multipole            Electronic (a.u.)      Nuclear  (a.u.)        Total (a.u.)
 ------------------------------------------------------------------------------------

 L = 1.  Multiply by 2.5417464519 to convert [e a0] to [Debye]
 Dipole X            :         32.2446754          -32.9305485           -0.6858731
 Dipole Y            :         10.8705825          -10.7631281            0.1074545
 Dipole Z            :         14.2986285          -14.1551132            0.1435153
 Magnitude           :                                                    0.7089182

 ------------------------------------------------------------------------------------

*** tstop() called on d-19-15-2 at Tue Sep 19 07:15:41 2023
Module time:
	user time   =      54.64 seconds =       0.91 minutes
	system time =       0.78 seconds =       0.01 minutes
	total time  =         60 seconds =       1.00 minutes
Total time:
	user time   =   89636.14 seconds =    1493.94 minutes
	system time =   46080.80 seconds =     768.01 minutes
	total time  =     152837 seconds =    2547.28 minutes

    Psi4 stopped on: Tuesday, 19 September 2023 07:15AM
    Psi4 wall time for execution: 0:00:59.51


    -----------------------------------------------------------------------
          Psi4: An Open-Source Ab Initio Electronic Structure Package
                               Psi4 1.7 release

                         Git: Rev {HEAD} 6ce35a5 


    D. G. A. Smith, L. A. Burns, A. C. Simmonett, R. M. Parrish,
    M. C. Schieber, R. Galvelis, P. Kraus, H. Kruse, R. Di Remigio,
    A. Alenaizan, A. M. James, S. Lehtola, J. P. Misiewicz, M. Scheurer,
    R. A. Shaw, J. B. Schriber, Y. Xie, Z. L. Glick, D. A. Sirianni,
    J. S. O'Brien, J. M. Waldrop, A. Kumar, E. G. Hohenstein,
    B. P. Pritchard, B. R. Brooks, H. F. Schaefer III, A. Yu. Sokolov,
    K. Patkowski, A. E. DePrince III, U. Bozkaya, R. A. King,
    F. A. Evangelista, J. M. Turney, T. D. Crawford, C. D. Sherrill,
    J. Chem. Phys. 152(18) 184108 (2020). https://doi.org/10.1063/5.0006002

                            Additional Code Authors
    E. T. Seidl, C. L. Janssen, E. F. Valeev, M. L. Leininger,
    J. F. Gonthier, R. M. Richard, H. R. McAlexander, M. Saitow, X. Wang,
    P. Verma, M. H. Lechner, A. Jiang, S. Behnle, A. G. Heide,
    M. F. Herbst, and D. L. Poole

             Previous Authors, Complete List of Code Contributors,
                       and Citations for Specific Modules
    https://github.com/psi4/psi4/blob/master/codemeta.json
    https://github.com/psi4/psi4/graphs/contributors
    http://psicode.org/psi4manual/master/introduction.html#citing-psifour

    -----------------------------------------------------------------------


    Psi4 started on: Sunday, 17 September 2023 12:48PM

    Process ID: 258105
    Host:       d-19-15-2
    PSIDATADIR: /home/gridsan/kfisher/.conda/envs/p4env/share/psi4
    Memory:     18.6 GiB
    Threads:    1
    
  ==> Input QCSchema <==

--------------------------------------------------------------------------
{'driver': 'energy',
 'extras': {'psiapi': True, 'wfn_qcvars_only': True},
 'id': None,
 'keywords': {'D_CONVERGENCE': 1e-10, 'E_CONVERGENCE': 1e-10, 'function_kwargs': {'dft_functional': 'scan-d3zero2b'}},
 'model': {'basis': 'aug-cc-pvtz', 'method': 'scf'},
 'molecule': {'atom_labels': ['', '', '', '', '', '', '', '', ''],
              'atomic_numbers': [1, 1, 8, 1, 1, 8, 1, 1, 8],
              'fix_com': True,
              'fix_orientation': True,
              'fix_symmetry': 'c1',
              'fragment_charges': [0.0, 0.0, 0.0],
              'fragment_multiplicities': [1, 1, 1],
              'fragments': [[0, 1, 2], [3, 4, 5], [6, 7, 8]],
              'geometry': [-3.944864211663501, -1.6329459065440974, 0.07821570764091575, -4.35884836589915,
                           -0.24363849651945932, -2.561801174853303, -3.0783544853292195, -1.110817960689864,
                           -1.4589409642613096, 0.027445229513212967, 1.067237947161312, -1.6182803090022568,
                           1.4611229554293308, 3.250870682473111, -3.068137321983968, 1.7250798628387578,
                           1.676697431615796, -2.081599977832243, -0.39048078003657394, 5.885079926357744,
                           -5.114329879348733, -1.9570167027578507, 6.524138947005723, -2.7667346788163605,
                           -0.2757768419679856, 6.73140503441174, -3.5055041158165374],
              'mass_numbers': [1, 1, 16, 1, 1, 16, 1, 1, 16],
              'masses': [1.00782503223, 1.00782503223, 15.99491461957, 1.00782503223, 1.00782503223, 15.99491461957,
                         1.00782503223, 1.00782503223, 15.99491461957],
              'molecular_charge': 0.0,
              'molecular_multiplicity': 1,
              'name': 'H6O3',
              'provenance': {'creator': 'QCElemental',
                             'routine': 'qcelemental.molparse.from_string',
                             'version': 'v0.25.1'},
              'real': [False, False, False, True, True, True, False, False, False],
              'schema_name': 'qcschema_molecule',
              'schema_version': 2,
              'symbols': ['H', 'H', 'O', 'H', 'H', 'O', 'H', 'H', 'O'],
              'validated': True},
 'protocols': {'stdout': True},
 'provenance': {'creator': 'QCElemental', 'routine': 'qcelemental.models.results', 'version': 'v0.25.1'},
 'schema_name': 'qcschema_input',
 'schema_version': 1}
--------------------------------------------------------------------------

Scratch directory: /home/gridsan/kfisher/scratch/

*** tstart() called on d-19-15-2
*** at Tue Sep 19 07:15:41 2023

   => Loading Basis Set <=

    Name: AUG-CC-PVTZ
    Role: ORBITAL
    Keyword: BASIS
    atoms 1-2, 4-5, 7-8 entry H          line    40 file /home/gridsan/kfisher/.conda/envs/p4env/share/psi4/basis/aug-cc-pvtz.gbs 
    atoms 3, 6, 9       entry O          line   331 file /home/gridsan/kfisher/.conda/envs/p4env/share/psi4/basis/aug-cc-pvtz.gbs 

   => SCAN-D3: Empirical Dispersion <=

    Grimme's -D3 (zero-damping) Dispersion Correction
    Grimme S.; Antony J.; Ehrlich S.; Krieg H. (2010), J. Chem. Phys., 132: 154104
    Parametrisation from:    J.G. Brandenburg, J. E. Bates, J. Sun, J.P. Perdew, Phys. Rev. B 94, 115144, 2016

        s6 =       1.000000
        s8 =       0.000000
       sr6 =       1.324000
    alpha6 =      14.000000
       sr8 =       1.000000


         ---------------------------------------------------------
                                   SCF
               by Justin Turney, Rob Parrish, Andy Simmonett
                          and Daniel G. A. Smith
                              RKS Reference
                        1 Threads,  19073 MiB Core
         ---------------------------------------------------------

  ==> Geometry <==

    Molecular point group: c1
    Full point group: C1

    Geometry (in Bohr), charge = 0, multiplicity = 1:

       Center              X                  Y                   Z               Mass       
    ------------   -----------------  -----------------  -----------------  -----------------
      Gh(H)          -3.944864211664    -1.632945906544     0.078215707641     1.007825032230
      Gh(H)          -4.358848365899    -0.243638496519    -2.561801174853     1.007825032230
      Gh(O)          -3.078354485329    -1.110817960690    -1.458940964261    15.994914619570
         H            0.027445229513     1.067237947161    -1.618280309002     1.007825032230
         H            1.461122955429     3.250870682473    -3.068137321984     1.007825032230
         O            1.725079862839     1.676697431616    -2.081599977832    15.994914619570
      Gh(H)          -0.390480780037     5.885079926358    -5.114329879349     1.007825032230
      Gh(H)          -1.957016702758     6.524138947006    -2.766734678816     1.007825032230
      Gh(O)          -0.275776841968     6.731405034412    -3.505504115817    15.994914619570

  Running in c1 symmetry.

  Rotational constants: A =      0.18796  B =      0.04982  C =      0.04229 [cm^-1]
  Rotational constants: A =   5634.82512  B =   1493.70802  C =   1267.96385 [MHz]
  Nuclear repulsion =    8.893975478623593

  Charge       = 0
  Multiplicity = 1
  Electrons    = 10
  Nalpha       = 5
  Nbeta        = 5

  ==> Algorithm <==

  SCF Algorithm Type is DF.
  DIIS enabled.
  MOM disabled.
  Fractional occupation disabled.
  Guess Type is SAD.
  Energy threshold   = 1.00e-10
  Density threshold  = 1.00e-10
  Integral threshold = 1.00e-12

  ==> Primary Basis <==

  Basis Set: AUG-CC-PVTZ
    Blend: AUG-CC-PVTZ
    Number of shells: 96
    Number of basis functions: 276
    Number of Cartesian functions: 315
    Spherical Harmonics?: true
    Max angular momentum: 3

  ==> DFT Potential <==

   => Composite Functional: SCAN-D3ZERO2B <= 

    SCAN Meta-GGA XC Functional
(10.1103/PhysRevLett.115.036402)
    J. Sun, A. Ruzsinszky, J. P. Perdew  Phys. Rev. Lett. 115, 036402, 2015


    Deriv               =              1
    GGA                 =           TRUE
    Meta                =           TRUE

    Exchange Hybrid     =          FALSE
    MP2 Hybrid          =          FALSE

   => Exchange Functionals <=

    1.0000   XC_MGGA_X_SCAN

   => Correlation Functionals <=

    1.0000   XC_MGGA_C_SCAN

   => LibXC Density Thresholds  <==

    XC_MGGA_C_SCAN:  1.00E-15 
    XC_MGGA_X_SCAN:  1.00E-15 

   => Molecular Quadrature <=

    Radial Scheme          =       TREUTLER
    Pruning Scheme         =           NONE
    Nuclear Scheme         =       TREUTLER

    Blocking Scheme        =         OCTREE
    BS radius alpha        =              1
    Pruning alpha          =              1
    Radial Points          =             75
    Spherical Points       =            302
    Total Points           =         197795
    Total Blocks           =           1517
    Max Points             =            256
    Max Functions          =            276
    Weights Tolerance      =       1.00E-15

   => Loading Basis Set <=

    Name: (AUG-CC-PVTZ AUX)
    Role: JKFIT
    Keyword: DF_BASIS_SCF
    atoms 1-2, 4-5, 7-8 entry H          line    70 file /home/gridsan/kfisher/.conda/envs/p4env/share/psi4/basis/aug-cc-pvtz-jkfit.gbs 
    atoms 3, 6, 9       entry O          line   286 file /home/gridsan/kfisher/.conda/envs/p4env/share/psi4/basis/aug-cc-pvtz-jkfit.gbs 

  ==> Integral Setup <==

  DFHelper Memory: AOs need 0.335 GiB; user supplied 10.988 GiB. Using in-core AOs.

  ==> MemDFJK: Density-Fitted J/K Matrices <==

    J tasked:                   Yes
    K tasked:                    No
    wK tasked:                   No
    OpenMP threads:               1
    Memory [MiB]:             11252
    Algorithm:                 Core
    Schwarz Cutoff:           1E-12
    Mask sparsity (%):       5.1827
    Fitting Condition:        1E-10

   => Auxiliary Basis Set <=

  Basis Set: (AUG-CC-PVTZ AUX)
    Blend: AUG-CC-PVTZ-JKFIT
    Number of shells: 174
    Number of basis functions: 588
    Number of Cartesian functions: 723
    Spherical Harmonics?: true
    Max angular momentum: 4

  Cached 100.0% of DFT collocation blocks in 2.981 [GiB].

  Minimum eigenvalue in the overlap matrix is 2.0487947361E-04.
  Reciprocal condition number of the overlap matrix is 1.9192372663E-05.
    Using symmetric orthogonalization.

  ==> Pre-Iterations <==

  SCF Guess: Superposition of Atomic Densities via on-the-fly atomic UHF (no occupation information).

   -------------------------
    Irrep   Nso     Nmo    
   -------------------------
     A        276     276 
   -------------------------
    Total     276     276
   -------------------------

  ==> Iterations <==

                           Total Energy        Delta E     RMS |[F,P]|

   @DF-RKS iter SAD:   -76.04829374633918   -7.60483e+01   0.00000e+00 
   @DF-RKS iter   1:   -76.24340375921058   -1.95110e-01   2.62641e-03 DIIS/ADIIS
   @DF-RKS iter   2:   -75.62000223673274    6.23402e-01   5.10527e-03 DIIS/ADIIS
   @DF-RKS iter   3:   -76.42791181016077   -8.07910e-01   2.26888e-04 DIIS/ADIIS
   @DF-RKS iter   4:   -76.42977124357601   -1.85943e-03   2.84347e-05 DIIS
   @DF-RKS iter   5:   -76.42979110903558   -1.98655e-05   8.03408e-06 DIIS
   @DF-RKS iter   6:   -76.42979279995849   -1.69092e-06   4.64387e-07 DIIS
   @DF-RKS iter   7:   -76.42979280514034   -5.18185e-09   1.09653e-07 DIIS
   @DF-RKS iter   8:   -76.42979280548711   -3.46773e-10   1.80325e-08 DIIS
   @DF-RKS iter   9:   -76.42979280549743   -1.03171e-11   3.15073e-09 DIIS
   @DF-RKS iter  10:   -76.42979280549777   -3.41061e-13   1.47058e-10 DIIS
   @DF-RKS iter  11:   -76.42979280549766    1.13687e-13   1.32597e-11 DIIS
  Energy and wave function converged.


  ==> Post-Iterations <==

   Electrons on quadrature grid:
      Ntotal   =    9.9999978452 ; deviation = -2.155e-06 

    Orbital Energies [Eh]
    ---------------------

    Doubly Occupied:                                                      

       1A    -18.972012     2A     -0.968900     3A     -0.492711  
       4A     -0.352846     5A     -0.277081  

    Virtual:                                                              

       6A     -0.013909     7A      0.027312     8A      0.037216  
       9A      0.041048    10A      0.053397    11A      0.062663  
      12A      0.075744    13A      0.097609    14A      0.106463  
      15A      0.119920    16A      0.132299    17A      0.145859  
      18A      0.154022    19A      0.160872    20A      0.164588  
      21A      0.180388    22A      0.193739    23A      0.197384  
      24A      0.218086    25A      0.232958    26A      0.236010  
      27A      0.252524    28A      0.260845    29A      0.277469  
      30A      0.278879    31A      0.283907    32A      0.300457  
      33A      0.333094    34A      0.341776    35A      0.346492  
      36A      0.351915    37A      0.362910    38A      0.369511  
      39A      0.382550    40A      0.387945    41A      0.406480  
      42A      0.409481    43A      0.422126    44A      0.436648  
      45A      0.444213    46A      0.489918    47A      0.521938  
      48A      0.538154    49A      0.571253    50A      0.592254  
      51A      0.614276    52A      0.635713    53A      0.656001  
      54A      0.697934    55A      0.708798    56A      0.719816  
      57A      0.730900    58A      0.749222    59A      0.756476  
      60A      0.766538    61A      0.776257    62A      0.778620  
      63A      0.799714    64A      0.804392    65A      0.812043  
      66A      0.821648    67A      0.849358    68A      0.852127  
      69A      0.862839    70A      0.871896    71A      0.886714  
      72A      0.898692    73A      0.910364    74A      0.926813  
      75A      0.929407    76A      0.952882    77A      0.958916  
      78A      0.985447    79A      0.996373    80A      1.002989  
      81A      1.013816    82A      1.029091    83A      1.046984  
      84A      1.055107    85A      1.071545    86A      1.094980  
      87A      1.100692    88A      1.128093    89A      1.145480  
      90A      1.151206    91A      1.154977    92A      1.159368  
      93A      1.174146    94A      1.199752    95A      1.223500  
      96A      1.235431    97A      1.261544    98A      1.281857  
      99A      1.296830   100A      1.349786   101A      1.356154  
     102A      1.375072   103A      1.394437   104A      1.423766  
     105A      1.451871   106A      1.460723   107A      1.490175  
     108A      1.510652   109A      1.552361   110A      1.555262  
     111A      1.580117   112A      1.610377   113A      1.691294  
     114A      1.710974   115A      1.726944   116A      1.764353  
     117A      1.770300   118A      1.810282   119A      1.819580  
     120A      1.835242   121A      1.849283   122A      1.877478  
     123A      1.912983   124A      1.978848   125A      2.008612  
     126A      2.045126   127A      2.112212   128A      2.156759  
     129A      2.218778   130A      2.265040   131A      2.292206  
     132A      2.327152   133A      2.377369   134A      2.392310  
     135A      2.432349   136A      2.457162   137A      2.491894  
     138A      2.518231   139A      2.541448   140A      2.553683  
     141A      2.567164   142A      2.576706   143A      2.608785  
     144A      2.638154   145A      2.659222   146A      2.675002  
     147A      2.708855   148A      2.741968   149A      2.772458  
     150A      2.810853   151A      2.818023   152A      2.851891  
     153A      2.873507   154A      2.885673   155A      2.958705  
     156A      2.990365   157A      3.056986   158A      3.100734  
     159A      3.159227   160A      3.172680   161A      3.189309  
     162A      3.221937   163A      3.236587   164A      3.269914  
     165A      3.298128   166A      3.339704   167A      3.349945  
     168A      3.392823   169A      3.544764   170A      3.565091  
     171A      3.682779   172A      3.687896   173A      3.793195  
     174A      3.885662   175A      3.936185   176A      4.026512  
     177A      4.132173   178A      4.143127   179A      4.224554  
     180A      4.280778   181A      4.299619   182A      4.312803  
     183A      4.383374   184A      4.408977   185A      4.436804  
     186A      4.463538   187A      4.507597   188A      4.525205  
     189A      4.583961   190A      4.588448   191A      4.609386  
     192A      4.638233   193A      4.649305   194A      4.669313  
     195A      4.698888   196A      4.741098   197A      4.848560  
     198A      4.913259   199A      4.947225   200A      4.999365  
     201A      5.016657   202A      5.028864   203A      5.059133  
     204A      5.099045   205A      5.162993   206A      5.184857  
     207A      5.203066   208A      5.232226   209A      5.297825  
     210A      5.342288   211A      5.411902   212A      5.489887  
     213A      5.495529   214A      5.539006   215A      5.658465  
     216A      5.696160   217A      5.757850   218A      5.797779  
     219A      5.929018   220A      5.969632   221A      6.195927  
     222A      6.232676   223A      6.278009   224A      6.326585  
     225A      6.397642   226A      6.541272   227A      6.600116  
     228A      6.605438   229A      6.655481   230A      6.867497  
     231A      6.933006   232A      6.944414   233A      6.976564  
     234A      7.036631   235A      7.068666   236A      7.159509  
     237A      7.169796   238A      7.435920   239A      7.645205  
     240A      7.691064   241A      7.743435   242A      7.854707  
     243A      7.896838   244A      7.905290   245A      8.117233  
     246A      8.171765   247A      8.183235   248A      8.274812  
     249A      8.347291   250A      8.365169   251A      8.457661  
     252A      8.634222   253A      8.710411   254A      8.727689  
     255A      8.846660   256A      9.819475   257A      9.841942  
     258A      9.937035   259A      9.989870   260A     10.059747  
     261A     10.077351   262A     10.232026   263A     10.260413  
     264A     11.015803   265A     11.183250   266A     11.741960  
     267A     11.888593   268A     12.027478   269A     12.116932  
     270A     13.355330   271A     13.518064   272A     13.874911  
     273A     13.893790   274A     15.508460   275A     63.986407  
     276A     65.077184  

    Final Occupation by Irrep:
              A 
    DOCC [     5 ]
    NA   [     5 ]
    NB   [     5 ]

  @DF-RKS Final Energy:   -76.42979280549766

   => Energetics <=

    Nuclear Repulsion Energy =              8.8939754786235934
    One-Electron Energy =                -122.5230996543878916
    Two-Electron Energy =                  46.4689090433733796
    DFT Exchange-Correlation Energy =      -9.2695775031067331
    Empirical Dispersion Energy =          -0.0000001700000000
    VV10 Nonlocal Energy =                  0.0000000000000000
    Total Energy =                        -76.4297928054976694

Computation Completed


Properties will be evaluated at   0.000000,   0.000000,   0.000000 [a0]

Properties computed using the SCF density matrix


 Multipole Moments:

 ------------------------------------------------------------------------------------
     Multipole            Electronic (a.u.)      Nuclear  (a.u.)        Total (a.u.)
 ------------------------------------------------------------------------------------

 L = 1.  Multiply by 2.5417464519 to convert [e a0] to [Debye]
 Dipole X            :        -15.9156769           15.2892071           -0.6264698
 Dipole Y            :        -17.4248573           17.7316881            0.3068307
 Dipole Z            :         21.1730832          -21.3392175           -0.1661343
 Magnitude           :                                                    0.7170845

 ------------------------------------------------------------------------------------

*** tstop() called on d-19-15-2 at Tue Sep 19 07:16:52 2023
Module time:
	user time   =      57.11 seconds =       0.95 minutes
	system time =       1.10 seconds =       0.02 minutes
	total time  =         71 seconds =       1.18 minutes
Total time:
	user time   =   89693.33 seconds =    1494.89 minutes
	system time =   46081.90 seconds =     768.03 minutes
	total time  =     152908 seconds =    2548.47 minutes

    Psi4 stopped on: Tuesday, 19 September 2023 07:16AM
    Psi4 wall time for execution: 0:01:11.53


    -----------------------------------------------------------------------
          Psi4: An Open-Source Ab Initio Electronic Structure Package
                               Psi4 1.7 release

                         Git: Rev {HEAD} 6ce35a5 


    D. G. A. Smith, L. A. Burns, A. C. Simmonett, R. M. Parrish,
    M. C. Schieber, R. Galvelis, P. Kraus, H. Kruse, R. Di Remigio,
    A. Alenaizan, A. M. James, S. Lehtola, J. P. Misiewicz, M. Scheurer,
    R. A. Shaw, J. B. Schriber, Y. Xie, Z. L. Glick, D. A. Sirianni,
    J. S. O'Brien, J. M. Waldrop, A. Kumar, E. G. Hohenstein,
    B. P. Pritchard, B. R. Brooks, H. F. Schaefer III, A. Yu. Sokolov,
    K. Patkowski, A. E. DePrince III, U. Bozkaya, R. A. King,
    F. A. Evangelista, J. M. Turney, T. D. Crawford, C. D. Sherrill,
    J. Chem. Phys. 152(18) 184108 (2020). https://doi.org/10.1063/5.0006002

                            Additional Code Authors
    E. T. Seidl, C. L. Janssen, E. F. Valeev, M. L. Leininger,
    J. F. Gonthier, R. M. Richard, H. R. McAlexander, M. Saitow, X. Wang,
    P. Verma, M. H. Lechner, A. Jiang, S. Behnle, A. G. Heide,
    M. F. Herbst, and D. L. Poole

             Previous Authors, Complete List of Code Contributors,
                       and Citations for Specific Modules
    https://github.com/psi4/psi4/blob/master/codemeta.json
    https://github.com/psi4/psi4/graphs/contributors
    http://psicode.org/psi4manual/master/introduction.html#citing-psifour

    -----------------------------------------------------------------------


    Psi4 started on: Sunday, 17 September 2023 12:48PM

    Process ID: 258105
    Host:       d-19-15-2
    PSIDATADIR: /home/gridsan/kfisher/.conda/envs/p4env/share/psi4
    Memory:     18.6 GiB
    Threads:    1
    
  ==> Input QCSchema <==

--------------------------------------------------------------------------
{'driver': 'energy',
 'extras': {'psiapi': True, 'wfn_qcvars_only': True},
 'id': None,
 'keywords': {'D_CONVERGENCE': 1e-10, 'E_CONVERGENCE': 1e-10, 'function_kwargs': {'dft_functional': 'scan-d3zero2b'}},
 'model': {'basis': 'aug-cc-pvtz', 'method': 'scf'},
 'molecule': {'atom_labels': ['', '', '', '', '', '', '', '', ''],
              'atomic_numbers': [1, 1, 8, 1, 1, 8, 1, 1, 8],
              'fix_com': True,
              'fix_orientation': True,
              'fix_symmetry': 'c1',
              'fragment_charges': [0.0, 0.0, 0.0],
              'fragment_multiplicities': [1, 1, 1],
              'fragments': [[0, 1, 2], [3, 4, 5], [6, 7, 8]],
              'geometry': [-3.944864211663501, -1.6329459065440974, 0.07821570764091575, -4.35884836589915,
                           -0.24363849651945932, -2.561801174853303, -3.0783544853292195, -1.110817960689864,
                           -1.4589409642613096, 0.027445229513212967, 1.067237947161312, -1.6182803090022568,
                           1.4611229554293308, 3.250870682473111, -3.068137321983968, 1.7250798628387578,
                           1.676697431615796, -2.081599977832243, -0.39048078003657394, 5.885079926357744,
                           -5.114329879348733, -1.9570167027578507, 6.524138947005723, -2.7667346788163605,
                           -0.2757768419679856, 6.73140503441174, -3.5055041158165374],
              'mass_numbers': [1, 1, 16, 1, 1, 16, 1, 1, 16],
              'masses': [1.00782503223, 1.00782503223, 15.99491461957, 1.00782503223, 1.00782503223, 15.99491461957,
                         1.00782503223, 1.00782503223, 15.99491461957],
              'molecular_charge': 0.0,
              'molecular_multiplicity': 1,
              'name': 'H6O3',
              'provenance': {'creator': 'QCElemental',
                             'routine': 'qcelemental.molparse.from_string',
                             'version': 'v0.25.1'},
              'real': [False, False, False, True, True, True, True, True, True],
              'schema_name': 'qcschema_molecule',
              'schema_version': 2,
              'symbols': ['H', 'H', 'O', 'H', 'H', 'O', 'H', 'H', 'O'],
              'validated': True},
 'protocols': {'stdout': True},
 'provenance': {'creator': 'QCElemental', 'routine': 'qcelemental.models.results', 'version': 'v0.25.1'},
 'schema_name': 'qcschema_input',
 'schema_version': 1}
--------------------------------------------------------------------------

Scratch directory: /home/gridsan/kfisher/scratch/

*** tstart() called on d-19-15-2
*** at Tue Sep 19 07:16:53 2023

   => Loading Basis Set <=

    Name: AUG-CC-PVTZ
    Role: ORBITAL
    Keyword: BASIS
    atoms 1-2, 4-5, 7-8 entry H          line    40 file /home/gridsan/kfisher/.conda/envs/p4env/share/psi4/basis/aug-cc-pvtz.gbs 
    atoms 3, 6, 9       entry O          line   331 file /home/gridsan/kfisher/.conda/envs/p4env/share/psi4/basis/aug-cc-pvtz.gbs 

   => SCAN-D3: Empirical Dispersion <=

    Grimme's -D3 (zero-damping) Dispersion Correction
    Grimme S.; Antony J.; Ehrlich S.; Krieg H. (2010), J. Chem. Phys., 132: 154104
    Parametrisation from:    J.G. Brandenburg, J. E. Bates, J. Sun, J.P. Perdew, Phys. Rev. B 94, 115144, 2016

        s6 =       1.000000
        s8 =       0.000000
       sr6 =       1.324000
    alpha6 =      14.000000
       sr8 =       1.000000


         ---------------------------------------------------------
                                   SCF
               by Justin Turney, Rob Parrish, Andy Simmonett
                          and Daniel G. A. Smith
                              RKS Reference
                        1 Threads,  19073 MiB Core
         ---------------------------------------------------------

  ==> Geometry <==

    Molecular point group: c1
    Full point group: C1

    Geometry (in Bohr), charge = 0, multiplicity = 1:

       Center              X                  Y                   Z               Mass       
    ------------   -----------------  -----------------  -----------------  -----------------
      Gh(H)          -3.944864211664    -1.632945906544     0.078215707641     1.007825032230
      Gh(H)          -4.358848365899    -0.243638496519    -2.561801174853     1.007825032230
      Gh(O)          -3.078354485329    -1.110817960690    -1.458940964261    15.994914619570
         H            0.027445229513     1.067237947161    -1.618280309002     1.007825032230
         H            1.461122955429     3.250870682473    -3.068137321984     1.007825032230
         O            1.725079862839     1.676697431616    -2.081599977832    15.994914619570
         H           -0.390480780037     5.885079926358    -5.114329879349     1.007825032230
         H           -1.957016702758     6.524138947006    -2.766734678816     1.007825032230
         O           -0.275776841968     6.731405034412    -3.505504115817    15.994914619570

  Running in c1 symmetry.

  Rotational constants: A =      0.18796  B =      0.04982  C =      0.04229 [cm^-1]
  Rotational constants: A =   5634.82512  B =   1493.70802  C =   1267.96385 [MHz]
  Nuclear repulsion =   36.274517689099596

  Charge       = 0
  Multiplicity = 1
  Electrons    = 20
  Nalpha       = 10
  Nbeta        = 10

  ==> Algorithm <==

  SCF Algorithm Type is DF.
  DIIS enabled.
  MOM disabled.
  Fractional occupation disabled.
  Guess Type is SAD.
  Energy threshold   = 1.00e-10
  Density threshold  = 1.00e-10
  Integral threshold = 1.00e-12

  ==> Primary Basis <==

  Basis Set: AUG-CC-PVTZ
    Blend: AUG-CC-PVTZ
    Number of shells: 96
    Number of basis functions: 276
    Number of Cartesian functions: 315
    Spherical Harmonics?: true
    Max angular momentum: 3

  ==> DFT Potential <==

   => Composite Functional: SCAN-D3ZERO2B <= 

    SCAN Meta-GGA XC Functional
(10.1103/PhysRevLett.115.036402)
    J. Sun, A. Ruzsinszky, J. P. Perdew  Phys. Rev. Lett. 115, 036402, 2015


    Deriv               =              1
    GGA                 =           TRUE
    Meta                =           TRUE

    Exchange Hybrid     =          FALSE
    MP2 Hybrid          =          FALSE

   => Exchange Functionals <=

    1.0000   XC_MGGA_X_SCAN

   => Correlation Functionals <=

    1.0000   XC_MGGA_C_SCAN

   => LibXC Density Thresholds  <==

    XC_MGGA_C_SCAN:  1.00E-15 
    XC_MGGA_X_SCAN:  1.00E-15 

   => Molecular Quadrature <=

    Radial Scheme          =       TREUTLER
    Pruning Scheme         =           NONE
    Nuclear Scheme         =       TREUTLER

    Blocking Scheme        =         OCTREE
    BS radius alpha        =              1
    Pruning alpha          =              1
    Radial Points          =             75
    Spherical Points       =            302
    Total Points           =         197795
    Total Blocks           =           1517
    Max Points             =            256
    Max Functions          =            276
    Weights Tolerance      =       1.00E-15

   => Loading Basis Set <=

    Name: (AUG-CC-PVTZ AUX)
    Role: JKFIT
    Keyword: DF_BASIS_SCF
    atoms 1-2, 4-5, 7-8 entry H          line    70 file /home/gridsan/kfisher/.conda/envs/p4env/share/psi4/basis/aug-cc-pvtz-jkfit.gbs 
    atoms 3, 6, 9       entry O          line   286 file /home/gridsan/kfisher/.conda/envs/p4env/share/psi4/basis/aug-cc-pvtz-jkfit.gbs 

  ==> Integral Setup <==

  DFHelper Memory: AOs need 0.335 GiB; user supplied 10.988 GiB. Using in-core AOs.

  ==> MemDFJK: Density-Fitted J/K Matrices <==

    J tasked:                   Yes
    K tasked:                    No
    wK tasked:                   No
    OpenMP threads:               1
    Memory [MiB]:             11252
    Algorithm:                 Core
    Schwarz Cutoff:           1E-12
    Mask sparsity (%):       5.1827
    Fitting Condition:        1E-10

   => Auxiliary Basis Set <=

  Basis Set: (AUG-CC-PVTZ AUX)
    Blend: AUG-CC-PVTZ-JKFIT
    Number of shells: 174
    Number of basis functions: 588
    Number of Cartesian functions: 723
    Spherical Harmonics?: true
    Max angular momentum: 4

  Cached 100.0% of DFT collocation blocks in 2.981 [GiB].

  Minimum eigenvalue in the overlap matrix is 2.0487947361E-04.
  Reciprocal condition number of the overlap matrix is 1.9192372663E-05.
    Using symmetric orthogonalization.

  ==> Pre-Iterations <==

  SCF Guess: Superposition of Atomic Densities via on-the-fly atomic UHF (no occupation information).

   -------------------------
    Irrep   Nso     Nmo    
   -------------------------
     A        276     276 
   -------------------------
    Total     276     276
   -------------------------

  ==> Iterations <==

                           Total Energy        Delta E     RMS |[F,P]|

   @DF-RKS iter SAD:  -152.15914470865516   -1.52159e+02   0.00000e+00 
   @DF-RKS iter   1:  -152.50696697461748   -3.47822e-01   3.65484e-03 DIIS/ADIIS
   @DF-RKS iter   2:  -151.42964275704941    1.07732e+00   6.84295e-03 DIIS/ADIIS
   @DF-RKS iter   3:  -152.85902104920532   -1.42938e+00   3.56725e-04 DIIS/ADIIS
   @DF-RKS iter   4:  -152.86030881457481   -1.28777e-03   3.40670e-04 DIIS/ADIIS
   @DF-RKS iter   5:  -152.86328437671045   -2.97556e-03   4.82645e-05 DIIS
   @DF-RKS iter   6:  -152.86334625546942   -6.18788e-05   9.52972e-06 DIIS
   @DF-RKS iter   7:  -152.86334884150637   -2.58604e-06   1.06379e-06 DIIS
   @DF-RKS iter   8:  -152.86334887175548   -3.02491e-08   3.25662e-07 DIIS
   @DF-RKS iter   9:  -152.86334887506035   -3.30488e-09   4.30016e-08 DIIS
   @DF-RKS iter  10:  -152.86334887511998   -5.96287e-11   8.41090e-09 DIIS
   @DF-RKS iter  11:  -152.86334887512237   -2.38742e-12   1.15877e-09 DIIS
   @DF-RKS iter  12:  -152.86334887512282   -4.54747e-13   1.59276e-10 DIIS
   @DF-RKS iter  13:  -152.86334887512254    2.84217e-13   3.71971e-11 DIIS
  Energy and wave function converged.


  ==> Post-Iterations <==

   Electrons on quadrature grid:
      Ntotal   =   19.9999922474 ; deviation = -7.753e-06 

    Orbital Energies [Eh]
    ---------------------

    Doubly Occupied:                                                      

       1A    -18.995871     2A    -18.955697     3A     -1.005402  
       4A     -0.953868     5A     -0.522939     6A     -0.478343  
       7A     -0.383422     8A     -0.346075     9A     -0.300530  
      10A     -0.262909  

    Virtual:                                                              

      11A     -0.033047    12A      0.015489    13A      0.023202  
      14A      0.035510    15A      0.048717    16A      0.060875  
      17A      0.071127    18A      0.086504    19A      0.100845  
      20A      0.108070    21A      0.124472    22A      0.130004  
      23A      0.138794    24A      0.150318    25A      0.155307  
      26A      0.166302    27A      0.172755    28A      0.186777  
      29A      0.195065    30A      0.202470    31A      0.213822  
      32A      0.227720    33A      0.245327    34A      0.252537  
      35A      0.264392    36A      0.277377    37A      0.284907  
      38A      0.310375    39A      0.315441    40A      0.332148  
      41A      0.337126    42A      0.342264    43A      0.353631  
      44A      0.359791    45A      0.367384    46A      0.384679  
      47A      0.393834    48A      0.399744    49A      0.407172  
      50A      0.436959    51A      0.485658    52A      0.496240  
      53A      0.508154    54A      0.521735    55A      0.544396  
      56A      0.570601    57A      0.582603    58A      0.598901  
      59A      0.619985    60A      0.643823    61A      0.659651  
      62A      0.672742    63A      0.695740    64A      0.723672  
      65A      0.733273    66A      0.739083    67A      0.749613  
      68A      0.762448    69A      0.792073    70A      0.805828  
      71A      0.813440    72A      0.823636    73A      0.827164  
      74A      0.829342    75A      0.853012    76A      0.857899  
      77A      0.869679    78A      0.890850    79A      0.893041  
      80A      0.900334    81A      0.918073    82A      0.931557  
      83A      0.945129    84A      0.949489    85A      0.973305  
      86A      0.978260    87A      0.996671    88A      1.007711  
      89A      1.020901    90A      1.035500    91A      1.053594  
      92A      1.064367    93A      1.082176    94A      1.092743  
      95A      1.107009    96A      1.130653    97A      1.138712  
      98A      1.152065    99A      1.160086   100A      1.164993  
     101A      1.196281   102A      1.202979   103A      1.246227  
     104A      1.251371   105A      1.270819   106A      1.313258  
     107A      1.339266   108A      1.351137   109A      1.370804  
     110A      1.406994   111A      1.426876   112A      1.434580  
     113A      1.460437   114A      1.476608   115A      1.518693  
     116A      1.543033   117A      1.556554   118A      1.568623  
     119A      1.575891   120A      1.678965   121A      1.689597  
     122A      1.721314   123A      1.762908   124A      1.793240  
     125A      1.808016   126A      1.837546   127A      1.869023  
     128A      1.919386   129A      1.945952   130A      1.984593  
     131A      2.003796   132A      2.020133   133A      2.126724  
     134A      2.171949   135A      2.179215   136A      2.192683  
     137A      2.238373   138A      2.268809   139A      2.282810  
     140A      2.307644   141A      2.336205   142A      2.359641  
     143A      2.374696   144A      2.395956   145A      2.428872  
     146A      2.450899   147A      2.480732   148A      2.517697  
     149A      2.543169   150A      2.550860   151A      2.559413  
     152A      2.590496   153A      2.608769   154A      2.637440  
     155A      2.654452   156A      2.677224   157A      2.698954  
     158A      2.720605   159A      2.747622   160A      2.774325  
     161A      2.812762   162A      2.855167   163A      2.870924  
     164A      2.894242   165A      3.006611   166A      3.066155  
     167A      3.155335   168A      3.192455   169A      3.232385  
     170A      3.332082   171A      3.387221   172A      3.558430  
     173A      3.580657   174A      3.616213   175A      3.686193  
     176A      3.729866   177A      3.858029   178A      3.906218  
     179A      3.939569   180A      3.975989   181A      4.035826  
     182A      4.074817   183A      4.110265   184A      4.123049  
     185A      4.170802   186A      4.192335   187A      4.233983  
     188A      4.267702   189A      4.289013   190A      4.297468  
     191A      4.309495   192A      4.334500   193A      4.365422  
     194A      4.403963   195A      4.447293   196A      4.450367  
     197A      4.458871   198A      4.542730   199A      4.581407  
     200A      4.599747   201A      4.629931   202A      4.640114  
     203A      4.698787   204A      4.711011   205A      4.793515  
     206A      4.937985   207A      4.969219   208A      5.001838  
     209A      5.022536   210A      5.049798   211A      5.065084  
     212A      5.107275   213A      5.124236   214A      5.149263  
     215A      5.174747   216A      5.203049   217A      5.247963  
     218A      5.276633   219A      5.367581   220A      5.415669  
     221A      5.496963   222A      5.521631   223A      5.600360  
     224A      5.698803   225A      5.781465   226A      5.931066  
     227A      5.980303   228A      6.214973   229A      6.265957  
     230A      6.278374   231A      6.337011   232A      6.459181  
     233A      6.543389   234A      6.600691   235A      6.635075  
     236A      6.681895   237A      6.860135   238A      6.869847  
     239A      6.892616   240A      6.939879   241A      6.945716  
     242A      6.971725   243A      6.994114   244A      7.002589  
     245A      7.023269   246A      7.053387   247A      7.094258  
     248A      7.158492   249A      7.204418   250A      7.335308  
     251A      7.484838   252A      7.559718   253A      7.659399  
     254A      7.672598   255A      7.731223   256A      7.859067  
     257A      7.904304   258A      8.117306   259A      8.171305  
     260A      8.347174   261A      8.447798   262A      8.499781  
     263A      8.632542   264A      8.713128   265A      9.820990  
     266A      9.989608   267A     10.059632   268A     10.261024  
     269A     11.015017   270A     11.742120   271A     12.027982  
     272A     13.355655   273A     13.893393   274A     15.094745  
     275A     15.642864   276A     64.009680  

    Final Occupation by Irrep:
              A 
    DOCC [    10 ]
    NA   [    10 ]
    NB   [    10 ]

  @DF-RKS Final Energy:  -152.86334887512254

   => Energetics <=

    Nuclear Repulsion Energy =             36.2745176890995964
    One-Electron Energy =                -281.8525780890229271
    Two-Electron Energy =                 111.2828300168301467
    DFT Exchange-Correlation Energy =     -18.5679178420293489
    Empirical Dispersion Energy =          -0.0002006500000000
    VV10 Nonlocal Energy =                  0.0000000000000000
    Total Energy =                       -152.8633488751225684

Computation Completed


Properties will be evaluated at   0.000000,   0.000000,   0.000000 [a0]

Properties computed using the SCF density matrix


 Multipole Moments:

 ------------------------------------------------------------------------------------
     Multipole            Electronic (a.u.)      Nuclear  (a.u.)        Total (a.u.)
 ------------------------------------------------------------------------------------

 L = 1.  Multiply by 2.5417464519 to convert [e a0] to [Debye]
 Dipole X            :        -11.9847879           10.7354949           -1.2492931
 Dipole Y            :        -83.8368218           83.9921472            0.1553255
 Dipole Z            :         56.8133003          -57.2643149           -0.4510147
 Magnitude           :                                                    1.3372634

 ------------------------------------------------------------------------------------

*** tstop() called on d-19-15-2 at Tue Sep 19 07:18:05 2023
Module time:
	user time   =      64.08 seconds =       1.07 minutes
	system time =       0.93 seconds =       0.02 minutes
	total time  =         72 seconds =       1.20 minutes
Total time:
	user time   =   89757.52 seconds =    1495.96 minutes
	system time =   46082.83 seconds =     768.05 minutes
	total time  =     152981 seconds =    2549.68 minutes

    Psi4 stopped on: Tuesday, 19 September 2023 07:18AM
    Psi4 wall time for execution: 0:01:12.19


    -----------------------------------------------------------------------
          Psi4: An Open-Source Ab Initio Electronic Structure Package
                               Psi4 1.7 release

                         Git: Rev {HEAD} 6ce35a5 


    D. G. A. Smith, L. A. Burns, A. C. Simmonett, R. M. Parrish,
    M. C. Schieber, R. Galvelis, P. Kraus, H. Kruse, R. Di Remigio,
    A. Alenaizan, A. M. James, S. Lehtola, J. P. Misiewicz, M. Scheurer,
    R. A. Shaw, J. B. Schriber, Y. Xie, Z. L. Glick, D. A. Sirianni,
    J. S. O'Brien, J. M. Waldrop, A. Kumar, E. G. Hohenstein,
    B. P. Pritchard, B. R. Brooks, H. F. Schaefer III, A. Yu. Sokolov,
    K. Patkowski, A. E. DePrince III, U. Bozkaya, R. A. King,
    F. A. Evangelista, J. M. Turney, T. D. Crawford, C. D. Sherrill,
    J. Chem. Phys. 152(18) 184108 (2020). https://doi.org/10.1063/5.0006002

                            Additional Code Authors
    E. T. Seidl, C. L. Janssen, E. F. Valeev, M. L. Leininger,
    J. F. Gonthier, R. M. Richard, H. R. McAlexander, M. Saitow, X. Wang,
    P. Verma, M. H. Lechner, A. Jiang, S. Behnle, A. G. Heide,
    M. F. Herbst, and D. L. Poole

             Previous Authors, Complete List of Code Contributors,
                       and Citations for Specific Modules
    https://github.com/psi4/psi4/blob/master/codemeta.json
    https://github.com/psi4/psi4/graphs/contributors
    http://psicode.org/psi4manual/master/introduction.html#citing-psifour

    -----------------------------------------------------------------------


    Psi4 started on: Sunday, 17 September 2023 12:48PM

    Process ID: 258105
    Host:       d-19-15-2
    PSIDATADIR: /home/gridsan/kfisher/.conda/envs/p4env/share/psi4
    Memory:     18.6 GiB
    Threads:    1
    
  ==> Input QCSchema <==

--------------------------------------------------------------------------
{'driver': 'energy',
 'extras': {'psiapi': True, 'wfn_qcvars_only': True},
 'id': None,
 'keywords': {'D_CONVERGENCE': 1e-10, 'E_CONVERGENCE': 1e-10, 'function_kwargs': {'dft_functional': 'scan-d3zero2b'}},
 'model': {'basis': 'aug-cc-pvtz', 'method': 'scf'},
 'molecule': {'atom_labels': ['', '', '', '', '', '', '', '', ''],
              'atomic_numbers': [1, 1, 8, 1, 1, 8, 1, 1, 8],
              'fix_com': True,
              'fix_orientation': True,
              'fix_symmetry': 'c1',
              'fragment_charges': [0.0, 0.0, 0.0],
              'fragment_multiplicities': [1, 1, 1],
              'fragments': [[0, 1, 2], [3, 4, 5], [6, 7, 8]],
              'geometry': [-3.944864211663501, -1.6329459065440974, 0.07821570764091575, -4.35884836589915,
                           -0.24363849651945932, -2.561801174853303, -3.0783544853292195, -1.110817960689864,
                           -1.4589409642613096, 0.027445229513212967, 1.067237947161312, -1.6182803090022568,
                           1.4611229554293308, 3.250870682473111, -3.068137321983968, 1.7250798628387578,
                           1.676697431615796, -2.081599977832243, -0.39048078003657394, 5.885079926357744,
                           -5.114329879348733, -1.9570167027578507, 6.524138947005723, -2.7667346788163605,
                           -0.2757768419679856, 6.73140503441174, -3.5055041158165374],
              'mass_numbers': [1, 1, 16, 1, 1, 16, 1, 1, 16],
              'masses': [1.00782503223, 1.00782503223, 15.99491461957, 1.00782503223, 1.00782503223, 15.99491461957,
                         1.00782503223, 1.00782503223, 15.99491461957],
              'molecular_charge': 0.0,
              'molecular_multiplicity': 1,
              'name': 'H6O3',
              'provenance': {'creator': 'QCElemental',
                             'routine': 'qcelemental.molparse.from_string',
                             'version': 'v0.25.1'},
              'real': [True, True, True, False, False, False, True, True, True],
              'schema_name': 'qcschema_molecule',
              'schema_version': 2,
              'symbols': ['H', 'H', 'O', 'H', 'H', 'O', 'H', 'H', 'O'],
              'validated': True},
 'protocols': {'stdout': True},
 'provenance': {'creator': 'QCElemental', 'routine': 'qcelemental.models.results', 'version': 'v0.25.1'},
 'schema_name': 'qcschema_input',
 'schema_version': 1}
--------------------------------------------------------------------------

Scratch directory: /home/gridsan/kfisher/scratch/

*** tstart() called on d-19-15-2
*** at Tue Sep 19 07:18:05 2023

   => Loading Basis Set <=

    Name: AUG-CC-PVTZ
    Role: ORBITAL
    Keyword: BASIS
    atoms 1-2, 4-5, 7-8 entry H          line    40 file /home/gridsan/kfisher/.conda/envs/p4env/share/psi4/basis/aug-cc-pvtz.gbs 
    atoms 3, 6, 9       entry O          line   331 file /home/gridsan/kfisher/.conda/envs/p4env/share/psi4/basis/aug-cc-pvtz.gbs 

   => SCAN-D3: Empirical Dispersion <=

    Grimme's -D3 (zero-damping) Dispersion Correction
    Grimme S.; Antony J.; Ehrlich S.; Krieg H. (2010), J. Chem. Phys., 132: 154104
    Parametrisation from:    J.G. Brandenburg, J. E. Bates, J. Sun, J.P. Perdew, Phys. Rev. B 94, 115144, 2016

        s6 =       1.000000
        s8 =       0.000000
       sr6 =       1.324000
    alpha6 =      14.000000
       sr8 =       1.000000


         ---------------------------------------------------------
                                   SCF
               by Justin Turney, Rob Parrish, Andy Simmonett
                          and Daniel G. A. Smith
                              RKS Reference
                        1 Threads,  19073 MiB Core
         ---------------------------------------------------------

  ==> Geometry <==

    Molecular point group: c1
    Full point group: C1

    Geometry (in Bohr), charge = 0, multiplicity = 1:

       Center              X                  Y                   Z               Mass       
    ------------   -----------------  -----------------  -----------------  -----------------
         H           -3.944864211664    -1.632945906544     0.078215707641     1.007825032230
         H           -4.358848365899    -0.243638496519    -2.561801174853     1.007825032230
         O           -3.078354485329    -1.110817960690    -1.458940964261    15.994914619570
      Gh(H)           0.027445229513     1.067237947161    -1.618280309002     1.007825032230
      Gh(H)           1.461122955429     3.250870682473    -3.068137321984     1.007825032230
      Gh(O)           1.725079862839     1.676697431616    -2.081599977832    15.994914619570
         H           -0.390480780037     5.885079926358    -5.114329879349     1.007825032230
         H           -1.957016702758     6.524138947006    -2.766734678816     1.007825032230
         O           -0.275776841968     6.731405034412    -3.505504115817    15.994914619570

  Running in c1 symmetry.

  Rotational constants: A =      0.18796  B =      0.04982  C =      0.04229 [cm^-1]
  Rotational constants: A =   5634.82512  B =   1493.70802  C =   1267.96385 [MHz]
  Nuclear repulsion =   29.683859878663281

  Charge       = 0
  Multiplicity = 1
  Electrons    = 20
  Nalpha       = 10
  Nbeta        = 10

  ==> Algorithm <==

  SCF Algorithm Type is DF.
  DIIS enabled.
  MOM disabled.
  Fractional occupation disabled.
  Guess Type is SAD.
  Energy threshold   = 1.00e-10
  Density threshold  = 1.00e-10
  Integral threshold = 1.00e-12

  ==> Primary Basis <==

  Basis Set: AUG-CC-PVTZ
    Blend: AUG-CC-PVTZ
    Number of shells: 96
    Number of basis functions: 276
    Number of Cartesian functions: 315
    Spherical Harmonics?: true
    Max angular momentum: 3

  ==> DFT Potential <==

   => Composite Functional: SCAN-D3ZERO2B <= 

    SCAN Meta-GGA XC Functional
(10.1103/PhysRevLett.115.036402)
    J. Sun, A. Ruzsinszky, J. P. Perdew  Phys. Rev. Lett. 115, 036402, 2015


    Deriv               =              1
    GGA                 =           TRUE
    Meta                =           TRUE

    Exchange Hybrid     =          FALSE
    MP2 Hybrid          =          FALSE

   => Exchange Functionals <=

    1.0000   XC_MGGA_X_SCAN

   => Correlation Functionals <=

    1.0000   XC_MGGA_C_SCAN

   => LibXC Density Thresholds  <==

    XC_MGGA_C_SCAN:  1.00E-15 
    XC_MGGA_X_SCAN:  1.00E-15 

   => Molecular Quadrature <=

    Radial Scheme          =       TREUTLER
    Pruning Scheme         =           NONE
    Nuclear Scheme         =       TREUTLER

    Blocking Scheme        =         OCTREE
    BS radius alpha        =              1
    Pruning alpha          =              1
    Radial Points          =             75
    Spherical Points       =            302
    Total Points           =         197795
    Total Blocks           =           1517
    Max Points             =            256
    Max Functions          =            276
    Weights Tolerance      =       1.00E-15

   => Loading Basis Set <=

    Name: (AUG-CC-PVTZ AUX)
    Role: JKFIT
    Keyword: DF_BASIS_SCF
    atoms 1-2, 4-5, 7-8 entry H          line    70 file /home/gridsan/kfisher/.conda/envs/p4env/share/psi4/basis/aug-cc-pvtz-jkfit.gbs 
    atoms 3, 6, 9       entry O          line   286 file /home/gridsan/kfisher/.conda/envs/p4env/share/psi4/basis/aug-cc-pvtz-jkfit.gbs 

  ==> Integral Setup <==

  DFHelper Memory: AOs need 0.335 GiB; user supplied 10.988 GiB. Using in-core AOs.

  ==> MemDFJK: Density-Fitted J/K Matrices <==

    J tasked:                   Yes
    K tasked:                    No
    wK tasked:                   No
    OpenMP threads:               1
    Memory [MiB]:             11252
    Algorithm:                 Core
    Schwarz Cutoff:           1E-12
    Mask sparsity (%):       5.1827
    Fitting Condition:        1E-10

   => Auxiliary Basis Set <=

  Basis Set: (AUG-CC-PVTZ AUX)
    Blend: AUG-CC-PVTZ-JKFIT
    Number of shells: 174
    Number of basis functions: 588
    Number of Cartesian functions: 723
    Spherical Harmonics?: true
    Max angular momentum: 4

  Cached 100.0% of DFT collocation blocks in 2.981 [GiB].

  Minimum eigenvalue in the overlap matrix is 2.0487947361E-04.
  Reciprocal condition number of the overlap matrix is 1.9192372663E-05.
    Using symmetric orthogonalization.

  ==> Pre-Iterations <==

  SCF Guess: Superposition of Atomic Densities via on-the-fly atomic UHF (no occupation information).

   -------------------------
    Irrep   Nso     Nmo    
   -------------------------
     A        276     276 
   -------------------------
    Total     276     276
   -------------------------

  ==> Iterations <==

                           Total Energy        Delta E     RMS |[F,P]|

   @DF-RKS iter SAD:  -152.10808540889585   -1.52108e+02   0.00000e+00 
   @DF-RKS iter   1:  -152.48511439427259   -3.77029e-01   3.73098e-03 DIIS/ADIIS
   @DF-RKS iter   2:  -151.25887534355397    1.22624e+00   7.19204e-03 DIIS/ADIIS
   @DF-RKS iter   3:  -152.85663308650359   -1.59776e+00   2.92128e-04 DIIS/ADIIS
   @DF-RKS iter   4:  -152.85962385829995   -2.99077e-03   8.84604e-05 DIIS
   @DF-RKS iter   5:  -152.85970716823289   -8.33099e-05   6.88223e-05 DIIS
   @DF-RKS iter   6:  -152.85982806085411   -1.20893e-04   9.60008e-06 DIIS
   @DF-RKS iter   7:  -152.85983052710830   -2.46625e-06   6.83462e-07 DIIS
   @DF-RKS iter   8:  -152.85983053890399   -1.17957e-08   2.33939e-07 DIIS
   @DF-RKS iter   9:  -152.85983054055254   -1.64854e-09   4.14550e-08 DIIS
   @DF-RKS iter  10:  -152.85983054060478   -5.22391e-11   2.12235e-09 DIIS
   @DF-RKS iter  11:  -152.85983054060495   -1.70530e-13   5.30282e-10 DIIS
   @DF-RKS iter  12:  -152.85983054060543   -4.83169e-13   1.21577e-10 DIIS
   @DF-RKS iter  13:  -152.85983054060520    2.27374e-13   1.12599e-11 DIIS
  Energy and wave function converged.


  ==> Post-Iterations <==

   Electrons on quadrature grid:
      Ntotal   =   19.9999950768 ; deviation = -4.923e-06 

    Orbital Energies [Eh]
    ---------------------

    Doubly Occupied:                                                      

       1A    -18.975909     2A    -18.967075     3A     -0.974883  
       4A     -0.972621     5A     -0.499141     6A     -0.492972  
       7A     -0.355239     8A     -0.354681     9A     -0.281229  
      10A     -0.275724  

    Virtual:                                                              

      11A     -0.026466    12A      0.001823    13A      0.029725  
      14A      0.033641    15A      0.049611    16A      0.064089  
      17A      0.076622    18A      0.085783    19A      0.110537  
      20A      0.116989    21A      0.122205    22A      0.127173  
      23A      0.139409    24A      0.148169    25A      0.156803  
      26A      0.165455    27A      0.174405    28A      0.184645  
      29A      0.192822    30A      0.199533    31A      0.212250  
      32A      0.226362    33A      0.239407    34A      0.255643  
      35A      0.262850    36A      0.302729    37A      0.308926  
      38A      0.314313    39A      0.329624    40A      0.339407  
      41A      0.343478    42A      0.353652    43A      0.358592  
      44A      0.365174    45A      0.374542    46A      0.383942  
      47A      0.387452    48A      0.409501    49A      0.422978  
      50A      0.445431    51A      0.466926    52A      0.499560  
      53A      0.510413    54A      0.535087    55A      0.556310  
      56A      0.560361    57A      0.604812    58A      0.625879  
      59A      0.628988    60A      0.633283    61A      0.664599  
      62A      0.676519    63A      0.702067    64A      0.726707  
      65A      0.754617    66A      0.757938    67A      0.779047  
      68A      0.781997    69A      0.789775    70A      0.800791  
      71A      0.810732    72A      0.826830    73A      0.842347  
      74A      0.852921    75A      0.857918    76A      0.862493  
      77A      0.877011    78A      0.896926    79A      0.912156  
      80A      0.922067    81A      0.931239    82A      0.945563  
      83A      0.950601    84A      0.959478    85A      0.967624  
      86A      0.986215    87A      0.998015    88A      1.021670  
      89A      1.035428    90A      1.041964    91A      1.050834  
      92A      1.059992    93A      1.083955    94A      1.100675  
      95A      1.104967    96A      1.112106    97A      1.130210  
      98A      1.168118    99A      1.172199   100A      1.191392  
     101A      1.208653   102A      1.236806   103A      1.256793  
     104A      1.301991   105A      1.318157   106A      1.321746  
     107A      1.376619   108A      1.407283   109A      1.420707  
     110A      1.431445   111A      1.458149   112A      1.479576  
     113A      1.518313   114A      1.546594   115A      1.554952  
     116A      1.582506   117A      1.616056   118A      1.644581  
     119A      1.701525   120A      1.707292   121A      1.727572  
     122A      1.751463   123A      1.782205   124A      1.823867  
     125A      1.837148   126A      1.864836   127A      1.880881  
     128A      1.910209   129A      1.942659   130A      1.981910  
     131A      1.992476   132A      2.078112   133A      2.091658  
     134A      2.138565   135A      2.214819   136A      2.237818  
     137A      2.243143   138A      2.262429   139A      2.291750  
     140A      2.307139   141A      2.321589   142A      2.340221  
     143A      2.349534   144A      2.399507   145A      2.436654  
     146A      2.454521   147A      2.469645   148A      2.537402  
     149A      2.554436   150A      2.564231   151A      2.582170  
     152A      2.596280   153A      2.610988   154A      2.631310  
     155A      2.652799   156A      2.690143   157A      2.697849  
     158A      2.721888   159A      2.748308   160A      2.752420  
     161A      2.779321   162A      2.798999   163A      2.848771  
     164A      2.883185   165A      2.961157   166A      3.153646  
     167A      3.291024   168A      3.324785   169A      3.371229  
     170A      3.465449   171A      3.495301   172A      3.531535  
     173A      3.612053   174A      3.640627   175A      3.668085  
     176A      3.749713   177A      3.852954   178A      3.913609  
     179A      3.951663   180A      3.982955   181A      3.998861  
     182A      4.081692   183A      4.110757   184A      4.130490  
     185A      4.192973   186A      4.258649   187A      4.270861  
     188A      4.300211   189A      4.322118   190A      4.340091  
     191A      4.379239   192A      4.406991   193A      4.419716  
     194A      4.437081   195A      4.485462   196A      4.502505  
     197A      4.551160   198A      4.559423   199A      4.643339  
     200A      4.673102   201A      4.711725   202A      4.731213  
     203A      4.776937   204A      4.964921   205A      5.002905  
     206A      5.045371   207A      5.059891   208A      5.064711  
     209A      5.096056   210A      5.108946   211A      5.159303  
     212A      5.175683   213A      5.182760   214A      5.201174  
     215A      5.228948   216A      5.268405   217A      5.336676  
     218A      5.446365   219A      5.475229   220A      5.562912  
     221A      5.575443   222A      5.675572   223A      5.688080  
     224A      5.729803   225A      5.882827   226A      5.960863  
     227A      6.038382   228A      6.263656   229A      6.306799  
     230A      6.391377   231A      6.444879   232A      6.542458  
     233A      6.607256   234A      6.684952   235A      6.706540  
     236A      6.749643   237A      6.878109   238A      6.906476  
     239A      6.949120   240A      6.963934   241A      6.978251  
     242A      6.984970   243A      7.013909   244A      7.025462  
     245A      7.043873   246A      7.064653   247A      7.097076  
     248A      7.114791   249A      7.173877   250A      7.277441  
     251A      7.335508   252A      7.563942   253A      7.591161  
     254A      7.598756   255A      7.697325   256A      7.770861  
     257A      7.855289   258A      8.104000   259A      8.316672  
     260A      8.348062   261A      8.398184   262A      8.529561  
     263A      8.874300   264A      8.973120   265A      9.706744  
     266A      9.872208   267A     10.162710   268A     10.382297  
     269A     11.113391   270A     11.772614   271A     11.976403  
     272A     13.585095   273A     14.079233   274A     14.722058  
     275A     15.290721   276A     65.673551  

    Final Occupation by Irrep:
              A 
    DOCC [    10 ]
    NA   [    10 ]
    NB   [    10 ]

  @DF-RKS Final Energy:  -152.85983054060520

   => Energetics <=

    Nuclear Repulsion Energy =             29.6838598786632808
    One-Electron Energy =                -268.7825664063288400
    Two-Electron Energy =                 104.7955005313648655
    DFT Exchange-Correlation Energy =     -18.5564928943044940
    Empirical Dispersion Energy =          -0.0001316500000000
    VV10 Nonlocal Energy =                  0.0000000000000000
[...]
    DFT Exchange-Correlation Energy =      -9.2694943914609116
    Empirical Dispersion Energy =          -0.0000001700000000
    VV10 Nonlocal Energy =                  0.0000000000000000
    Total Energy =                        -76.4297598335519268

Computation Completed


Properties will be evaluated at   0.000000,   0.000000,   0.000000 [a0]

Properties computed using the SCF density matrix


 Multipole Moments:

 ------------------------------------------------------------------------------------
     Multipole            Electronic (a.u.)      Nuclear  (a.u.)        Total (a.u.)
 ------------------------------------------------------------------------------------

 L = 1.  Multiply by 2.5417464519 to convert [e a0] to [Debye]
 Dipole X            :        -15.9156105           15.2892071           -0.6264034
 Dipole Y            :        -17.4246446           17.7316881            0.3070435
 Dipole Z            :         21.1729006          -21.3392175           -0.1663169
 Magnitude           :                                                    0.7171598

 ------------------------------------------------------------------------------------

*** tstop() called on d-19-15-2 at Tue Sep 19 07:25:45 2023
Module time:
	user time   =      22.23 seconds =       0.37 minutes
	system time =       0.21 seconds =       0.00 minutes
	total time  =         23 seconds =       0.38 minutes
Total time:
	user time   =   90184.08 seconds =    1503.07 minutes
	system time =   46087.85 seconds =     768.13 minutes
	total time  =     153441 seconds =    2557.35 minutes

    Psi4 stopped on: Tuesday, 19 September 2023 07:25AM
    Psi4 wall time for execution: 0:00:22.65


    -----------------------------------------------------------------------
          Psi4: An Open-Source Ab Initio Electronic Structure Package
                               Psi4 1.7 release

                         Git: Rev {HEAD} 6ce35a5 


    D. G. A. Smith, L. A. Burns, A. C. Simmonett, R. M. Parrish,
    M. C. Schieber, R. Galvelis, P. Kraus, H. Kruse, R. Di Remigio,
    A. Alenaizan, A. M. James, S. Lehtola, J. P. Misiewicz, M. Scheurer,
    R. A. Shaw, J. B. Schriber, Y. Xie, Z. L. Glick, D. A. Sirianni,
    J. S. O'Brien, J. M. Waldrop, A. Kumar, E. G. Hohenstein,
    B. P. Pritchard, B. R. Brooks, H. F. Schaefer III, A. Yu. Sokolov,
    K. Patkowski, A. E. DePrince III, U. Bozkaya, R. A. King,
    F. A. Evangelista, J. M. Turney, T. D. Crawford, C. D. Sherrill,
    J. Chem. Phys. 152(18) 184108 (2020). https://doi.org/10.1063/5.0006002

                            Additional Code Authors
    E. T. Seidl, C. L. Janssen, E. F. Valeev, M. L. Leininger,
    J. F. Gonthier, R. M. Richard, H. R. McAlexander, M. Saitow, X. Wang,
    P. Verma, M. H. Lechner, A. Jiang, S. Behnle, A. G. Heide,
    M. F. Herbst, and D. L. Poole

             Previous Authors, Complete List of Code Contributors,
                       and Citations for Specific Modules
    https://github.com/psi4/psi4/blob/master/codemeta.json
    https://github.com/psi4/psi4/graphs/contributors
    http://psicode.org/psi4manual/master/introduction.html#citing-psifour

    -----------------------------------------------------------------------


    Psi4 started on: Sunday, 17 September 2023 12:48PM

    Process ID: 258105
    Host:       d-19-15-2
    PSIDATADIR: /home/gridsan/kfisher/.conda/envs/p4env/share/psi4
    Memory:     18.6 GiB
    Threads:    1
    
  ==> Input QCSchema <==

--------------------------------------------------------------------------
{'driver': 'energy',
 'extras': {'psiapi': True, 'wfn_qcvars_only': True},
 'id': None,
 'keywords': {'D_CONVERGENCE': 1e-10, 'E_CONVERGENCE': 1e-10, 'function_kwargs': {'dft_functional': 'scan-d3zero2b'}},
 'model': {'basis': 'aug-cc-pvtz', 'method': 'scf'},
 'molecule': {'atom_labels': ['', '', '', '', '', ''],
              'atomic_numbers': [1, 1, 8, 1, 1, 8],
              'fix_com': True,
              'fix_orientation': True,
              'fix_symmetry': 'c1',
              'fragment_charges': [0.0, 0.0],
              'fragment_multiplicities': [1, 1],
              'fragments': [[0, 1, 2], [3, 4, 5]],
              'geometry': [0.027445229513212967, 1.067237947161312, -1.6182803090022568, 1.4611229554293308,
                           3.250870682473111, -3.068137321983968, 1.7250798628387578, 1.676697431615796,
                           -2.081599977832243, -0.39048078003657394, 5.885079926357744, -5.114329879348733,
                           -1.9570167027578507, 6.524138947005723, -2.7667346788163605, -0.2757768419679856,
                           6.73140503441174, -3.5055041158165374],
              'mass_numbers': [1, 1, 16, 1, 1, 16],
              'masses': [1.00782503223, 1.00782503223, 15.99491461957, 1.00782503223, 1.00782503223, 15.99491461957],
              'molecular_charge': 0.0,
              'molecular_multiplicity': 1,
              'name': 'H4O2',
              'provenance': {'creator': 'QCElemental',
                             'routine': 'qcelemental.molparse.from_string',
                             'version': 'v0.25.1'},
              'real': [True, True, True, True, True, True],
              'schema_name': 'qcschema_molecule',
              'schema_version': 2,
              'symbols': ['H', 'H', 'O', 'H', 'H', 'O'],
              'validated': True},
 'protocols': {'stdout': True},
 'provenance': {'creator': 'QCElemental', 'routine': 'qcelemental.models.results', 'version': 'v0.25.1'},
 'schema_name': 'qcschema_input',
 'schema_version': 1}
--------------------------------------------------------------------------

Scratch directory: /home/gridsan/kfisher/scratch/

*** tstart() called on d-19-15-2
*** at Tue Sep 19 07:25:45 2023

   => Loading Basis Set <=

    Name: AUG-CC-PVTZ
    Role: ORBITAL
    Keyword: BASIS
    atoms 1-2, 4-5 entry H          line    40 file /home/gridsan/kfisher/.conda/envs/p4env/share/psi4/basis/aug-cc-pvtz.gbs 
    atoms 3, 6     entry O          line   331 file /home/gridsan/kfisher/.conda/envs/p4env/share/psi4/basis/aug-cc-pvtz.gbs 

   => SCAN-D3: Empirical Dispersion <=

    Grimme's -D3 (zero-damping) Dispersion Correction
    Grimme S.; Antony J.; Ehrlich S.; Krieg H. (2010), J. Chem. Phys., 132: 154104
    Parametrisation from:    J.G. Brandenburg, J. E. Bates, J. Sun, J.P. Perdew, Phys. Rev. B 94, 115144, 2016

        s6 =       1.000000
        s8 =       0.000000
       sr6 =       1.324000
    alpha6 =      14.000000
       sr8 =       1.000000


         ---------------------------------------------------------
                                   SCF
               by Justin Turney, Rob Parrish, Andy Simmonett
                          and Daniel G. A. Smith
                              RKS Reference
                        1 Threads,  19073 MiB Core
         ---------------------------------------------------------

  ==> Geometry <==

    Molecular point group: c1
    Full point group: C1

    Geometry (in Bohr), charge = 0, multiplicity = 1:

       Center              X                  Y                   Z               Mass       
    ------------   -----------------  -----------------  -----------------  -----------------
         H            0.027445229513     1.067237947161    -1.618280309002     1.007825032230
         H            1.461122955429     3.250870682473    -3.068137321984     1.007825032230
         O            1.725079862839     1.676697431616    -2.081599977832    15.994914619570
         H           -0.390480780037     5.885079926358    -5.114329879349     1.007825032230
         H           -1.957016702758     6.524138947006    -2.766734678816     1.007825032230
         O           -0.275776841968     6.731405034412    -3.505504115817    15.994914619570

  Running in c1 symmetry.

  Rotational constants: A =      0.79474  B =      0.05218  C =      0.04922 [cm^-1]
  Rotational constants: A =  23825.62831  B =   1564.16780  C =   1475.43437 [MHz]
  Nuclear repulsion =   36.274517689099596

  Charge       = 0
  Multiplicity = 1
  Electrons    = 20
  Nalpha       = 10
  Nbeta        = 10

  ==> Algorithm <==

  SCF Algorithm Type is DF.
  DIIS enabled.
  MOM disabled.
  Fractional occupation disabled.
  Guess Type is SAD.
  Energy threshold   = 1.00e-10
  Density threshold  = 1.00e-10
  Integral threshold = 1.00e-12

  ==> Primary Basis <==

  Basis Set: AUG-CC-PVTZ
    Blend: AUG-CC-PVTZ
    Number of shells: 64
    Number of basis functions: 184
    Number of Cartesian functions: 210
    Spherical Harmonics?: true
    Max angular momentum: 3

  ==> DFT Potential <==

   => Composite Functional: SCAN-D3ZERO2B <= 

    SCAN Meta-GGA XC Functional
(10.1103/PhysRevLett.115.036402)
    J. Sun, A. Ruzsinszky, J. P. Perdew  Phys. Rev. Lett. 115, 036402, 2015


    Deriv               =              1
    GGA                 =           TRUE
    Meta                =           TRUE

    Exchange Hybrid     =          FALSE
    MP2 Hybrid          =          FALSE

   => Exchange Functionals <=

    1.0000   XC_MGGA_X_SCAN

   => Correlation Functionals <=

    1.0000   XC_MGGA_C_SCAN

   => LibXC Density Thresholds  <==

    XC_MGGA_C_SCAN:  1.00E-15 
    XC_MGGA_X_SCAN:  1.00E-15 

   => Molecular Quadrature <=

    Radial Scheme          =       TREUTLER
    Pruning Scheme         =           NONE
    Nuclear Scheme         =       TREUTLER

    Blocking Scheme        =         OCTREE
    BS radius alpha        =              1
    Pruning alpha          =              1
    Radial Points          =             75
    Spherical Points       =            302
    Total Points           =         132405
    Total Blocks           =           1045
    Max Points             =            256
    Max Functions          =            184
    Weights Tolerance      =       1.00E-15

   => Loading Basis Set <=

    Name: (AUG-CC-PVTZ AUX)
    Role: JKFIT
    Keyword: DF_BASIS_SCF
    atoms 1-2, 4-5 entry H          line    70 file /home/gridsan/kfisher/.conda/envs/p4env/share/psi4/basis/aug-cc-pvtz-jkfit.gbs 
    atoms 3, 6     entry O          line   286 file /home/gridsan/kfisher/.conda/envs/p4env/share/psi4/basis/aug-cc-pvtz-jkfit.gbs 

  ==> Integral Setup <==

  DFHelper Memory: AOs need 0.106 GiB; user supplied 12.445 GiB. Using in-core AOs.

  ==> MemDFJK: Density-Fitted J/K Matrices <==

    J tasked:                   Yes
    K tasked:                    No
    wK tasked:                   No
    OpenMP threads:               1
    Memory [MiB]:             12743
    Algorithm:                 Core
    Schwarz Cutoff:           1E-12
    Mask sparsity (%):       0.6616
    Fitting Condition:        1E-10

   => Auxiliary Basis Set <=

  Basis Set: (AUG-CC-PVTZ AUX)
    Blend: AUG-CC-PVTZ-JKFIT
    Number of shells: 116
    Number of basis functions: 392
    Number of Cartesian functions: 482
    Spherical Harmonics?: true
    Max angular momentum: 4

  Cached 100.0% of DFT collocation blocks in 1.525 [GiB].

  Minimum eigenvalue in the overlap matrix is 2.6131531893E-04.
  Reciprocal condition number of the overlap matrix is 2.7407806697E-05.
    Using symmetric orthogonalization.

  ==> Pre-Iterations <==

  SCF Guess: Superposition of Atomic Densities via on-the-fly atomic UHF (no occupation information).

   -------------------------
    Irrep   Nso     Nmo    
   -------------------------
     A        184     184 
   -------------------------
    Total     184     184
   -------------------------

  ==> Iterations <==

                           Total Energy        Delta E     RMS |[F,P]|

   @DF-RKS iter SAD:  -152.15914874135453   -1.52159e+02   0.00000e+00 
   @DF-RKS iter   1:  -152.50694150012293   -3.47793e-01   5.48219e-03 DIIS/ADIIS
   @DF-RKS iter   2:  -151.44735548978758    1.05959e+00   1.02188e-02 DIIS/ADIIS
   @DF-RKS iter   3:  -152.86020221124136   -1.41285e+00   4.52079e-04 DIIS/ADIIS
   @DF-RKS iter   4:  -152.86083949032849   -6.37279e-04   4.60370e-04 DIIS/ADIIS
   @DF-RKS iter   5:  -152.86324769818640   -2.40821e-03   7.26462e-05 DIIS
   @DF-RKS iter   6:  -152.86330971555279   -6.20174e-05   1.39443e-05 DIIS
   @DF-RKS iter   7:  -152.86331216677212   -2.45122e-06   1.52179e-06 DIIS
   @DF-RKS iter   8:  -152.86331219421507   -2.74430e-08   4.60462e-07 DIIS
   @DF-RKS iter   9:  -152.86331219716402   -2.94895e-09   6.03440e-08 DIIS
   @DF-RKS iter  10:  -152.86331219721649   -5.24665e-11   1.20103e-08 DIIS
   @DF-RKS iter  11:  -152.86331219721848   -1.98952e-12   1.57361e-09 DIIS
   @DF-RKS iter  12:  -152.86331219721865   -1.70530e-13   2.19447e-10 DIIS
   @DF-RKS iter  13:  -152.86331219721842    2.27374e-13   5.25820e-11 DIIS
  Energy and wave function converged.


  ==> Post-Iterations <==

   Electrons on quadrature grid:
      Ntotal   =   20.0000034454 ; deviation = 3.445e-06 

    Orbital Energies [Eh]
    ---------------------

    Doubly Occupied:                                                      

       1A    -18.995889     2A    -18.955741     3A     -1.005418  
       4A     -0.953896     5A     -0.522954     6A     -0.478377  
       7A     -0.383439     8A     -0.346085     9A     -0.300541  
      10A     -0.262928  

    Virtual:                                                              

      11A     -0.032818    12A      0.018325    13A      0.023398  
      14A      0.047898    15A      0.069553    16A      0.098314  
      17A      0.102979    18A      0.113698    19A      0.130606  
      20A      0.137248    21A      0.144698    22A      0.163176  
      23A      0.172466    24A      0.188869    25A      0.204654  
      26A      0.206518    27A      0.229729    28A      0.245015  
      29A      0.262729    30A      0.301839    31A      0.320750  
      32A      0.324725    33A      0.337548    34A      0.352837  
      35A      0.359518    36A      0.366349    37A      0.382930  
      38A      0.461317    39A      0.484990    40A      0.499455  
      41A      0.517851    42A      0.561609    43A      0.594428  
      44A      0.606269    45A      0.624666    46A      0.628817  
      47A      0.663173    48A      0.678210    49A      0.712647  
      50A      0.729612    51A      0.767440    52A      0.799082  
      53A      0.802977    54A      0.824607    55A      0.834064  
      56A      0.842731    57A      0.866790    58A      0.874973  
      59A      0.888119    60A      0.904407    61A      0.938642  
      62A      0.943512    63A      0.954529    64A      0.970896  
      65A      0.990480    66A      1.029410    67A      1.034529  
      68A      1.077465    69A      1.082824    70A      1.122746  
      71A      1.137517    72A      1.147496    73A      1.163846  
      74A      1.223727    75A      1.259389    76A      1.282802  
      77A      1.347143    78A      1.359055    79A      1.412270  
      80A      1.423283    81A      1.463391    82A      1.497810  
      83A      1.509788    84A      1.549230    85A      1.670930  
      86A      1.672424    87A      1.700763    88A      1.815933  
      89A      1.844741    90A      1.899714    91A      2.002035  
      92A      2.011558    93A      2.079905    94A      2.147962  
      95A      2.162545    96A      2.187487    97A      2.206428  
      98A      2.259715    99A      2.277124   100A      2.282533  
     101A      2.319190   102A      2.366233   103A      2.369178  
     104A      2.426308   105A      2.441251   106A      2.501491  
     107A      2.544021   108A      2.563080   109A      2.596539  
     110A      2.626812   111A      2.657186   112A      2.675423  
     113A      2.684924   114A      2.767824   115A      2.799080  
     116A      2.850575   117A      3.475827   118A      3.568741  
     119A      3.600029   120A      3.714980   121A      3.841664  
     122A      3.899024   123A      3.929103   124A      3.974822  
     125A      4.062960   126A      4.082074   127A      4.094959  
     128A      4.143449   129A      4.182704   130A      4.224403  
     131A      4.260921   132A      4.262350   133A      4.283317  
     134A      4.312672   135A      4.330567   136A      4.356320  
     137A      4.380403   138A      4.439036   139A      4.557243  
     140A      4.614145   141A      4.633993   142A      4.673749  
     143A      4.934606   144A      5.001003   145A      5.028112  
     146A      5.064050   147A      5.097889   148A      5.114871  
     149A      5.152408   150A      5.162240   151A      5.241806  
     152A      5.341849   153A      5.514915   154A      5.580672  
     155A      5.893016   156A      5.959622   157A      6.259516  
     158A      6.311178   159A      6.446367   160A      6.501915  
     161A      6.602154   162A      6.662075   163A      6.836440  
     164A      6.855244   165A      6.878854   166A      6.918115  
     167A      6.942418   168A      6.953023   169A      6.979404  
     170A      7.013240   171A      7.034199   172A      7.049212  
     173A      7.086994   174A      7.154814   175A      7.279101  
     176A      7.413412   177A      7.556116   178A      7.621477  
     179A      7.629194   180A      7.718680   181A      8.380621  
     182A      8.492888   183A     14.769390   184A     15.370191  

    Final Occupation by Irrep:
              A 
    DOCC [    10 ]
    NA   [    10 ]
    NB   [    10 ]

  @DF-RKS Final Energy:  -152.86331219721842

   => Energetics <=

    Nuclear Repulsion Energy =             36.2745176890995964
    One-Electron Energy =                -281.8521531849720532
    Two-Electron Energy =                 111.2823546810321318
    DFT Exchange-Correlation Energy =     -18.5678307323780807
    Empirical Dispersion Energy =          -0.0002006500000000
    VV10 Nonlocal Energy =                  0.0000000000000000
    Total Energy =                       -152.8633121972184199

Computation Completed


Properties will be evaluated at   0.000000,   0.000000,   0.000000 [a0]

Properties computed using the SCF density matrix


 Multipole Moments:

 ------------------------------------------------------------------------------------
     Multipole            Electronic (a.u.)      Nuclear  (a.u.)        Total (a.u.)
 ------------------------------------------------------------------------------------

 L = 1.  Multiply by 2.5417464519 to convert [e a0] to [Debye]
 Dipole X            :        -11.9847056           10.7354949           -1.2492107
 Dipole Y            :        -83.8364644           83.9921472            0.1556828
 Dipole Z            :         56.8130483          -57.2643149           -0.4512667
 Magnitude           :                                                    1.3373130

 ------------------------------------------------------------------------------------

*** tstop() called on d-19-15-2 at Tue Sep 19 07:26:14 2023
Module time:
	user time   =      27.25 seconds =       0.45 minutes
	system time =       0.43 seconds =       0.01 minutes
	total time  =         29 seconds =       0.48 minutes
Total time:
	user time   =   90211.39 seconds =    1503.52 minutes
	system time =   46088.28 seconds =     768.14 minutes
	total time  =     153470 seconds =    2557.83 minutes

    Psi4 stopped on: Tuesday, 19 September 2023 07:26AM
    Psi4 wall time for execution: 0:00:29.13


  //>>>>>>>>>>>>>>>>>>>>>>>>>>>>>>>>>>>//
  //          ManyBody Results         //
  //<<<<<<<<<<<<<<<<<<<<<<<<<<<<<<<<<<<//


   ==> N-Body: Counterpoise Corrected (CP) energies <==

        n-Body     Total Energy            Interaction Energy                          N-body Contribution to Interaction Energy
                   [Eh]                    [Eh]                  [kcal/mol]            [Eh]                  [kcal/mol]
             1  N/A                         0.000000000000        0.000000000000        0.000000000000        0.000000000000
  FULL/RTN   2  N/A                        -0.002454121548       -1.539984521099       -0.002454121548       -1.539984521099


