Scratch directory: /home/gridsan/kfisher/scratch/

  //>>>>>>>>>>>>>>>>>>>>>>>>>>>>>>>>>>>>>>>>//
  // ManyBody Setup: N-Body Levels [1, 2, 3]//
  //<<<<<<<<<<<<<<<<<<<<<<<<<<<<<<<<<<<<<<<<//

        Number of 1-body computations:     3
        Number of 2-body computations:     3
        Number of 3-body computations:     1

    -----------------------------------------------------------------------
          Psi4: An Open-Source Ab Initio Electronic Structure Package
                               Psi4 1.7 release

                         Git: Rev {HEAD} 6ce35a5 


    D. G. A. Smith, L. A. Burns, A. C. Simmonett, R. M. Parrish,
    M. C. Schieber, R. Galvelis, P. Kraus, H. Kruse, R. Di Remigio,
    A. Alenaizan, A. M. James, S. Lehtola, J. P. Misiewicz, M. Scheurer,
    R. A. Shaw, J. B. Schriber, Y. Xie, Z. L. Glick, D. A. Sirianni,
    J. S. O'Brien, J. M. Waldrop, A. Kumar, E. G. Hohenstein,
    B. P. Pritchard, B. R. Brooks, H. F. Schaefer III, A. Yu. Sokolov,
    K. Patkowski, A. E. DePrince III, U. Bozkaya, R. A. King,
    F. A. Evangelista, J. M. Turney, T. D. Crawford, C. D. Sherrill,
    J. Chem. Phys. 152(18) 184108 (2020). https://doi.org/10.1063/5.0006002

                            Additional Code Authors
    E. T. Seidl, C. L. Janssen, E. F. Valeev, M. L. Leininger,
    J. F. Gonthier, R. M. Richard, H. R. McAlexander, M. Saitow, X. Wang,
    P. Verma, M. H. Lechner, A. Jiang, S. Behnle, A. G. Heide,
    M. F. Herbst, and D. L. Poole

             Previous Authors, Complete List of Code Contributors,
                       and Citations for Specific Modules
    https://github.com/psi4/psi4/blob/master/codemeta.json
    https://github.com/psi4/psi4/graphs/contributors
    http://psicode.org/psi4manual/master/introduction.html#citing-psifour

    -----------------------------------------------------------------------


    Psi4 started on: Sunday, 17 September 2023 12:48PM

    Process ID: 258105
    Host:       d-19-15-2
    PSIDATADIR: /home/gridsan/kfisher/.conda/envs/p4env/share/psi4
    Memory:     18.6 GiB
    Threads:    1
    
  ==> Input QCSchema <==

--------------------------------------------------------------------------
{'driver': 'energy',
 'extras': {'psiapi': True, 'wfn_qcvars_only': True},
 'id': None,
 'keywords': {'D_CONVERGENCE': 1e-10, 'E_CONVERGENCE': 1e-10, 'function_kwargs': {}},
 'model': {'basis': 'aug-cc-pvtz', 'method': 'ccsd(t)'},
 'molecule': {'atom_labels': ['', '', '', '', '', '', '', '', ''],
              'atomic_numbers': [1, 1, 8, 1, 1, 8, 1, 1, 8],
              'fix_com': True,
              'fix_orientation': True,
              'fix_symmetry': 'c1',
              'fragment_charges': [0.0, 0.0, 0.0],
              'fragment_multiplicities': [1, 1, 1],
              'fragments': [[0, 1, 2], [3, 4, 5], [6, 7, 8]],
              'geometry': [-3.944864211663501, -1.6329459065440974, 0.07821570764091575, -4.35884836589915,
                           -0.24363849651945932, -2.561801174853303, -3.0783544853292195, -1.110817960689864,
                           -1.4589409642613096, 0.027445229513212967, 1.067237947161312, -1.6182803090022568,
                           1.4611229554293308, 3.250870682473111, -3.068137321983968, 1.7250798628387578,
                           1.676697431615796, -2.081599977832243, -0.39048078003657394, 5.885079926357744,
                           -5.114329879348733, -1.9570167027578507, 6.524138947005723, -2.7667346788163605,
                           -0.2757768419679856, 6.73140503441174, -3.5055041158165374],
              'mass_numbers': [1, 1, 16, 1, 1, 16, 1, 1, 16],
              'masses': [1.00782503223, 1.00782503223, 15.99491461957, 1.00782503223, 1.00782503223, 15.99491461957,
                         1.00782503223, 1.00782503223, 15.99491461957],
              'molecular_charge': 0.0,
              'molecular_multiplicity': 1,
              'name': 'H6O3',
              'provenance': {'creator': 'QCElemental',
                             'routine': 'qcelemental.molparse.from_string',
                             'version': 'v0.25.1'},
              'real': [True, True, True, False, False, False, False, False, False],
              'schema_name': 'qcschema_molecule',
              'schema_version': 2,
              'symbols': ['H', 'H', 'O', 'H', 'H', 'O', 'H', 'H', 'O'],
              'validated': True},
 'protocols': {'stdout': True},
 'provenance': {'creator': 'QCElemental', 'routine': 'qcelemental.models.results', 'version': 'v0.25.1'},
 'schema_name': 'qcschema_input',
 'schema_version': 1}
--------------------------------------------------------------------------

Scratch directory: /home/gridsan/kfisher/scratch/

*** tstart() called on d-19-15-2
*** at Tue Sep 19 07:26:14 2023

   => Loading Basis Set <=

    Name: AUG-CC-PVTZ
    Role: ORBITAL
    Keyword: BASIS
    atoms 1-2, 4-5, 7-8 entry H          line    40 file /home/gridsan/kfisher/.conda/envs/p4env/share/psi4/basis/aug-cc-pvtz.gbs 
    atoms 3, 6, 9       entry O          line   331 file /home/gridsan/kfisher/.conda/envs/p4env/share/psi4/basis/aug-cc-pvtz.gbs 


         ---------------------------------------------------------
                                   SCF
               by Justin Turney, Rob Parrish, Andy Simmonett
                          and Daniel G. A. Smith
                              RHF Reference
                        1 Threads,  19073 MiB Core
         ---------------------------------------------------------

  ==> Geometry <==

    Molecular point group: c1
    Full point group: C1

    Geometry (in Bohr), charge = 0, multiplicity = 1:

       Center              X                  Y                   Z               Mass       
    ------------   -----------------  -----------------  -----------------  -----------------
         H           -3.944864211664    -1.632945906544     0.078215707641     1.007825032230
         H           -4.358848365899    -0.243638496519    -2.561801174853     1.007825032230
         O           -3.078354485329    -1.110817960690    -1.458940964261    15.994914619570
      Gh(H)           0.027445229513     1.067237947161    -1.618280309002     1.007825032230
      Gh(H)           1.461122955429     3.250870682473    -3.068137321984     1.007825032230
      Gh(O)           1.725079862839     1.676697431616    -2.081599977832    15.994914619570
      Gh(H)          -0.390480780037     5.885079926358    -5.114329879349     1.007825032230
      Gh(H)          -1.957016702758     6.524138947006    -2.766734678816     1.007825032230
      Gh(O)          -0.275776841968     6.731405034412    -3.505504115817    15.994914619570

  Running in c1 symmetry.

  Rotational constants: A =      0.18796  B =      0.04982  C =      0.04229 [cm^-1]
  Rotational constants: A =   5634.82512  B =   1493.70802  C =   1267.96385 [MHz]
  Nuclear repulsion =    8.891107021020584

  Charge       = 0
  Multiplicity = 1
  Electrons    = 10
  Nalpha       = 5
  Nbeta        = 5

  ==> Algorithm <==

  SCF Algorithm Type is PK.
  DIIS enabled.
  MOM disabled.
  Fractional occupation disabled.
  Guess Type is SAD.
  Energy threshold   = 1.00e-10
  Density threshold  = 1.00e-10
  Integral threshold = 1.00e-12

  ==> Primary Basis <==

  Basis Set: AUG-CC-PVTZ
    Blend: AUG-CC-PVTZ
    Number of shells: 96
    Number of basis functions: 276
    Number of Cartesian functions: 315
    Spherical Harmonics?: true
    Max angular momentum: 3

  ==> Integral Setup <==

  Using in-core PK algorithm.
   Calculation information:
      Number of atoms:                   9
      Number of AO shells:              96
      Number of primitives:            156
      Number of atomic orbitals:       315
      Number of basis functions:       276

      Integral cutoff                 1.00e-12
      Number of threads:                 1

  Performing in-core PK
  Using 1461265302 doubles for integral storage.
  We computed 9503497 shell quartets total.
  Whereas there are 10841496 unique shell quartets.

  ==> DiskJK: Disk-Based J/K Matrices <==

    J tasked:                  Yes
    K tasked:                  Yes
    wK tasked:                  No
    Memory [MiB]:            14305
    Schwarz Cutoff:          1E-12

    OpenMP threads:              1

  Minimum eigenvalue in the overlap matrix is 2.0487947361E-04.
  Reciprocal condition number of the overlap matrix is 1.9192372663E-05.
    Using symmetric orthogonalization.

  ==> Pre-Iterations <==

  SCF Guess: Superposition of Atomic Densities via on-the-fly atomic UHF (no occupation information).

   -------------------------
    Irrep   Nso     Nmo    
   -------------------------
     A        276     276 
   -------------------------
    Total     276     276
   -------------------------

  ==> Iterations <==

                        Total Energy        Delta E     RMS |[F,P]|

   @RHF iter SAD:   -75.43737756392451   -7.54374e+01   0.00000e+00 
   @RHF iter   1:   -75.97046042139097   -5.33083e-01   1.69031e-03 DIIS/ADIIS
   @RHF iter   2:   -76.02194721111535   -5.14868e-02   1.18896e-03 DIIS/ADIIS
   @RHF iter   3:   -76.05560995761755   -3.36627e-02   8.13310e-05 DIIS
   @RHF iter   4:   -76.05604978028470   -4.39823e-04   2.07913e-05 DIIS
   @RHF iter   5:   -76.05608163449725   -3.18542e-05   4.85882e-06 DIIS
   @RHF iter   6:   -76.05608438529417   -2.75080e-06   1.08259e-06 DIIS
   @RHF iter   7:   -76.05608453360770   -1.48314e-07   1.96857e-07 DIIS
   @RHF iter   8:   -76.05608453785931   -4.25160e-09   3.44789e-08 DIIS
   @RHF iter   9:   -76.05608453796825   -1.08940e-10   9.17294e-09 DIIS
   @RHF iter  10:   -76.05608453797512   -6.87805e-12   1.30811e-09 DIIS
   @RHF iter  11:   -76.05608453797505    7.10543e-14   2.51539e-10 DIIS
   @RHF iter  12:   -76.05608453797504    1.42109e-14   6.06207e-11 DIIS
  Energy and wave function converged.


  ==> Post-Iterations <==

    Orbital Energies [Eh]
    ---------------------

    Doubly Occupied:                                                      

       1A    -20.571258     2A     -1.335866     3A     -0.705476  
       4A     -0.573298     5A     -0.506932  

    Virtual:                                                              

       6A      0.023762     7A      0.039139     8A      0.047577  
       9A      0.051298    10A      0.063108    11A      0.074337  
      12A      0.120458    13A      0.131767    14A      0.137613  
      15A      0.153029    16A      0.161041    17A      0.167063  
      18A      0.173447    19A      0.182535    20A      0.187859  
      21A      0.206948    22A      0.214561    23A      0.222631  
      24A      0.242478    25A      0.257092    26A      0.271277  
      27A      0.281764    28A      0.300391    29A      0.312200  
      30A      0.319517    31A      0.323395    32A      0.356883  
      33A      0.366216    34A      0.384599    35A      0.389737  
      36A      0.402917    37A      0.405269    38A      0.412513  
      39A      0.424746    40A      0.425100    41A      0.439185  
      42A      0.452973    43A      0.460445    44A      0.466399  
      45A      0.488746    46A      0.506498    47A      0.545171  
      48A      0.626553    49A      0.661852    50A      0.684188  
      51A      0.713944    52A      0.725633    53A      0.733431  
      54A      0.747274    55A      0.753922    56A      0.759801  
      57A      0.779386    58A      0.785252    59A      0.795069  
      60A      0.815898    61A      0.822827    62A      0.830408  
      63A      0.845149    64A      0.850222    65A      0.858725  
      66A      0.876129    67A      0.894066    68A      0.899190  
      69A      0.910872    70A      0.921059    71A      0.925565  
      72A      0.944362    73A      0.956842    74A      0.971772  
      75A      0.985805    76A      0.993339    77A      1.017670  
      78A      1.022018    79A      1.033629    80A      1.053742  
      81A      1.055906    82A      1.063402    83A      1.083449  
      84A      1.108640    85A      1.117732    86A      1.126472  
      87A      1.140401    88A      1.159419    89A      1.163820  
      90A      1.167420    91A      1.193711    92A      1.209382  
      93A      1.232502    94A      1.246546    95A      1.262703  
      96A      1.282842    97A      1.327116    98A      1.365201  
      99A      1.390194   100A      1.423840   101A      1.446129  
     102A      1.448635   103A      1.474326   104A      1.509629  
     105A      1.516803   106A      1.561591   107A      1.568157  
     108A      1.608810   109A      1.633872   110A      1.650167  
     111A      1.703978   112A      1.741056   113A      1.760084  
     114A      1.771442   115A      1.808296   116A      1.819603  
     117A      1.832467   118A      1.854222   119A      1.871714  
     120A      1.904300   121A      1.932394   122A      1.944632  
     123A      2.006588   124A      2.015947   125A      2.043436  
     126A      2.084369   127A      2.136681   128A      2.187594  
     129A      2.320395   130A      2.413153   131A      2.447526  
     132A      2.458502   133A      2.481677   134A      2.499168  
     135A      2.524870   136A      2.550594   137A      2.567649  
     138A      2.578659   139A      2.592538   140A      2.599254  
     141A      2.624481   142A      2.650577   143A      2.660741  
     144A      2.665449   145A      2.702807   146A      2.713959  
     147A      2.769737   148A      2.778141   149A      2.811416  
     150A      2.830699   151A      2.858501   152A      2.870968  
     153A      2.894361   154A      2.902783   155A      2.951166  
     156A      2.960507   157A      3.051899   158A      3.157925  
     159A      3.167173   160A      3.200237   161A      3.281814  
     162A      3.305968   163A      3.318202   164A      3.341565  
     165A      3.396635   166A      3.429255   167A      3.496526  
     168A      3.524023   169A      3.582326   170A      3.696702  
     171A      3.713693   172A      3.782272   173A      3.807783  
     174A      3.903953   175A      4.068136   176A      4.193847  
     177A      4.220664   178A      4.260350   179A      4.388900  
     180A      4.403615   181A      4.447308   182A      4.475897  
     183A      4.498263   184A      4.502748   185A      4.526963  
     186A      4.558465   187A      4.586757   188A      4.597918  
     189A      4.615125   190A      4.631458   191A      4.652306  
     192A      4.697963   193A      4.718260   194A      4.733680  
     195A      4.813023   196A      4.849185   197A      4.936004  
     198A      4.949362   199A      4.972138   200A      4.985525  
     201A      5.073129   202A      5.095912   203A      5.135169  
     204A      5.168981   205A      5.223755   206A      5.250015  
     207A      5.271049   208A      5.290868   209A      5.366120  
     210A      5.446100   211A      5.498493   212A      5.513152  
     213A      5.551422   214A      5.636737   215A      5.643598  
     216A      5.708094   217A      5.751502   218A      5.883769  
     219A      5.964213   220A      6.145184   221A      6.227598  
     222A      6.313206   223A      6.399084   224A      6.438084  
     225A      6.576720   226A      6.608416   227A      6.662545  
     228A      6.859128   229A      6.924374   230A      7.045331  
     231A      7.071102   232A      7.140487   233A      7.280252  
     234A      7.329482   235A      7.347292   236A      7.383946  
     237A      7.418782   238A      7.568897   239A      7.720055  
     240A      7.774872   241A      7.828793   242A      7.857824  
     243A      7.883085   244A      7.913815   245A      8.093741  
     246A      8.131285   247A      8.192786   248A      8.285452  
     249A      8.323398   250A      8.396253   251A      8.681035  
     252A      8.713467   253A      8.794361   254A      8.847102  
     255A      8.910394   256A      9.729903   257A      9.809957  
     258A      9.886682   259A      9.928946   260A     10.034505  
     261A     10.189187   262A     10.229871   263A     10.411743  
     264A     11.103379   265A     11.176779   266A     11.772056  
     267A     11.887755   268A     11.956976   269A     12.149940  
     270A     13.501866   271A     13.615966   272A     13.862879  
     273A     14.086247   274A     15.325362   275A     64.726919  
     276A     65.908615  

    Final Occupation by Irrep:
              A 
    DOCC [     5 ]
    NA   [     5 ]
    NB   [     5 ]

  @RHF Final Energy:   -76.05608453797504

   => Energetics <=

    Nuclear Repulsion Energy =              8.8911070210205843
    One-Electron Energy =                -122.5087226579302779
    Two-Electron Energy =                  37.5615310989346511
    Total Energy =                        -76.0560845379750390

Computation Completed


Properties will be evaluated at   0.000000,   0.000000,   0.000000 [a0]

Properties computed using the SCF density matrix


 Multipole Moments:

 ------------------------------------------------------------------------------------
     Multipole            Electronic (a.u.)      Nuclear  (a.u.)        Total (a.u.)
 ------------------------------------------------------------------------------------

 L = 1.  Multiply by 2.5417464519 to convert [e a0] to [Debye]
 Dipole X            :         32.1846914          -32.9305485           -0.7458570
 Dipole Y            :         10.8805104          -10.7631281            0.1173823
 Dipole Z            :         14.3102860          -14.1551132            0.1551728
 Magnitude           :                                                    0.7708177

 ------------------------------------------------------------------------------------

*** tstop() called on d-19-15-2 at Tue Sep 19 07:27:35 2023
Module time:
	user time   =      76.69 seconds =       1.28 minutes
	system time =       2.26 seconds =       0.04 minutes
	total time  =         81 seconds =       1.35 minutes
Total time:
	user time   =   90288.24 seconds =    1504.80 minutes
	system time =   46090.55 seconds =     768.18 minutes
	total time  =     153551 seconds =    2559.18 minutes
 MINTS: Wrapper to libmints.
   by Justin Turney

   Calculation information:
      Number of threads:                 1
      Number of atoms:                   9
      Number of AO shells:              96
      Number of SO shells:              96
      Number of primitives:            156
      Number of atomic orbitals:       315
      Number of basis functions:       276

      Number of irreps:                  1
      Integral cutoff                 1.00e-12
      Number of functions per irrep: [ 276 ]

 OEINTS: Overlap, kinetic, potential, dipole, and quadrupole integrals
         stored in file 35.

      Computing two-electron integrals...done
      Computed 591707682 non-zero two-electron integrals.
        Stored in file 33.


*** tstart() called on d-19-15-2
*** at Tue Sep 19 07:28:36 2023


	Wfn Parameters:
	--------------------
	Wavefunction         = CCSD_T
	Number of irreps     = 1
	Number of MOs        = 276
	Number of active MOs = 276
	AO-Basis             = NONE
	Semicanonical        = false
	Reference            = RHF
	Print Level          = 1

	IRREP	# MOs	# FZDC	# DOCC	# SOCC	# VIRT	# FZVR
	-----	-----	------	------	------	------	------
	 A	   276	    0	    5	    0	    271	    0
	Transforming integrals...
	IWL integrals will be deleted.
	(OO|OO)...
	Presorting SO-basis two-electron integrals.
	Sorting File: SO Ints (nn|nn) nbuckets = 1
	Constructing frozen core operators
	Starting first half-transformation.
	Sorting half-transformed integrals.
	First half integral transformation complete.
	Starting second half-transformation.
	Two-electron integral transformation complete.
	(OO|OV)...
	Starting second half-transformation.
	Two-electron integral transformation complete.
	(OO|VV)...
	Starting second half-transformation.
	Two-electron integral transformation complete.
	(OV|OO)...
	Starting first half-transformation.
	Sorting half-transformed integrals.
	First half integral transformation complete.
	Starting second half-transformation.
	Two-electron integral transformation complete.
	(OV|OV)...
	Starting second half-transformation.
	Two-electron integral transformation complete.
	(OV|VV)...
	Starting second half-transformation.
	Two-electron integral transformation complete.
	(VV|OO)...
	Starting first half-transformation.
	Sorting half-transformed integrals.
	First half integral transformation complete.
	Starting second half-transformation.
	Two-electron integral transformation complete.
	(VV|OV)...
	Starting second half-transformation.
	Two-electron integral transformation complete.
	(VV|VV)...
	Starting second half-transformation.
	Two-electron integral transformation complete.
	Frozen core energy     =      0.00000000000000

	Size of irrep 0 of <ab|cd> integrals:   5393.580 (MW) /  43148.644 (MB)
	Total:                                  5393.580 (MW) /  43148.644 (MB)

	Size of irrep 0 of <ia|bc> integrals:     99.513 (MW) /    796.100 (MB)
	Total:                                    99.513 (MW) /    796.100 (MB)

	Size of irrep 0 of tijab amplitudes:       1.836 (MW) /     14.688 (MB)
	Total:                                     1.836 (MW) /     14.688 (MB)

	Nuclear Rep. energy          =      8.89110702102058
	SCF energy                   =    -76.05608453797504
	One-electron energy          =   -122.50872266221984
	Two-electron energy          =     37.56153110322403
	Reference energy             =    -76.05608453797522

*** tstop() called on d-19-15-2 at Tue Sep 19 07:43:18 2023
Module time:
	user time   =     506.49 seconds =       8.44 minutes
	system time =     287.80 seconds =       4.80 minutes
	total time  =        882 seconds =      14.70 minutes
Total time:
	user time   =   90838.02 seconds =    1513.97 minutes
	system time =   46393.02 seconds =     773.22 minutes
	total time  =     154494 seconds =    2574.90 minutes
            **************************
            *                        *
            *        CCENERGY        *
            *                        *
            **************************

    Nuclear Rep. energy (wfn)     =    8.891107021020584
    SCF energy          (wfn)     =  -76.056084537975039
    Reference energy    (file100) =  -76.056084537975224

    Input parameters:
    -----------------
    Wave function   =     CCSD_T
    Reference wfn   =     RHF
    Brueckner       =     No
    Memory (Mbytes) =     20000.0
    Maxiter         =     50
    R_Convergence   =     1.0e-07
    E_Convergence   =     1.0e-10
    Restart         =     Yes
    DIIS            =     Yes
    AO Basis        =     NONE
    ABCD            =     NEW
    Cache Level     =     2
    Cache Type      =     LOW
    Print Level     =     1
    Num. of threads =     1
    # Amps to Print =     10
    Print MP2 Amps? =     No
    Analyze T2 Amps =     No
    Print Pair Ener =     No
    Local CC        =     No
    SCS-MP2         =     False
    SCSN-MP2        =     False
    SCS-CCSD        =     False

MP2 correlation energy -0.2862375843372575
                Solving CC Amplitude Equations
                ------------------------------
  Iter             Energy              RMS        T1Diag      D1Diag    New D1Diag    D2Diag
  ----     ---------------------    ---------   ----------  ----------  ----------   --------
     0        -0.286237584337257    0.000e+00    0.000000    0.000000    0.000000    0.121327
     1        -0.283918185488836    3.692e-02    0.007903    0.017827    0.017827    0.123772
     2        -0.289225275828872    1.327e-02    0.007728    0.017570    0.017570    0.128758
     3        -0.290678056643751    5.235e-03    0.008991    0.021000    0.021000    0.131217
     4        -0.290541340894441    1.150e-03    0.009155    0.021478    0.021478    0.131460
     5        -0.290553784749053    4.371e-04    0.009247    0.021793    0.021793    0.131539
     6        -0.290562138254620    1.158e-04    0.009271    0.021883    0.021883    0.131541
     7        -0.290560215428443    4.253e-05    0.009277    0.021906    0.021906    0.131532
     8        -0.290559520531961    1.319e-05    0.009278    0.021912    0.021912    0.131530
     9        -0.290559685387221    5.194e-06    0.009279    0.021914    0.021914    0.131530
    10        -0.290559448142410    2.047e-06    0.009279    0.021914    0.021914    0.131530
    11        -0.290559445174050    7.201e-07    0.009279    0.021914    0.021914    0.131530
    12        -0.290559434334778    3.183e-07    0.009279    0.021914    0.021914    0.131530
    13        -0.290559428989130    1.113e-07    0.009279    0.021914    0.021914    0.131530
    14        -0.290559428715759    3.948e-08    0.009279    0.021914    0.021914    0.131530
    15        -0.290559428905679    1.394e-08    0.009279    0.021914    0.021914    0.131530
    16        -0.290559428825830    5.192e-09    0.009279    0.021914    0.021914    0.131530
    17        -0.290559428810040    1.836e-09    0.009279    0.021914    0.021914    0.131530

    Iterations converged.


    Largest TIA Amplitudes:
              4  13        -0.0082216193
              4   6         0.0069353861
              4   8        -0.0065969350
              4  27         0.0053971386
              4  12        -0.0047674404
              2 118        -0.0043245494
              4  39         0.0042214763
              3   9         0.0041715628
              3   8        -0.0040846529
              4  41        -0.0040595352

    Largest TIjAb Amplitudes:
      2   2  37  37        -0.0128419344
      2   2  43  43        -0.0114026246
      2   2  42  42        -0.0105037618
      2   2  38  38        -0.0103425520
      2   2  37  38        -0.0095658055
      2   2  38  37        -0.0095658055
      3   3  42  42        -0.0093414757
      2   2  14  37        -0.0080554360
      2   2  37  14        -0.0080554360
      2   2  37  42        -0.0079968441

    SCF energy       (wfn)                    =  -76.056084537975039
    Reference energy (file100)                =  -76.056084537975224

    Opposite-spin MP2 correlation energy      =   -0.217345394622185
    Same-spin MP2 correlation energy          =   -0.068892189715073
    Singles MP2 correlation energy            =   -0.000000000000000
    MP2 correlation energy                    =   -0.286237584337257
      * MP2 total energy                      =  -76.342322122312481

    Opposite-spin CCSD correlation energy     =   -0.229456871351099
    Same-spin CCSD correlation energy         =   -0.061102557458940
    Singles CCSD correlation energy           =    0.000000000000000
    CCSD correlation energy                   =   -0.290559428810040
      * CCSD total energy                     =  -76.346643966785265

            **************************
            *                        *
            *        CCTRIPLES       *
            *                        *
            **************************


    Wave function   =    CCSD_T
    Reference wfn   =      RHF

    Nuclear Rep. energy (wfn)                =    8.891107021020584
    SCF energy          (wfn)                =  -76.056084537975039
    Reference energy    (file100)            =  -76.056084537975224
    CCSD energy         (file100)            =   -0.290559428810040
    Total CCSD energy   (file100)            =  -76.346643966785265

    Number of ijk index combinations:               35
    Memory available in words               :      2500000000
    Approx. words needed per explicit thread:        79610044
    Number of threads for explicit ijk threading:    1

    MKL num_threads set to 1 for explicit threading.

    (T) energy                                =   -0.009109436559779
      * CCSD(T) total energy                  =  -76.355753403345048


    Psi4 stopped on: Tuesday, 19 September 2023 07:52AM
    Psi4 wall time for execution: 0:26:00.87


    -----------------------------------------------------------------------
          Psi4: An Open-Source Ab Initio Electronic Structure Package
                               Psi4 1.7 release

                         Git: Rev {HEAD} 6ce35a5 


    D. G. A. Smith, L. A. Burns, A. C. Simmonett, R. M. Parrish,
    M. C. Schieber, R. Galvelis, P. Kraus, H. Kruse, R. Di Remigio,
    A. Alenaizan, A. M. James, S. Lehtola, J. P. Misiewicz, M. Scheurer,
    R. A. Shaw, J. B. Schriber, Y. Xie, Z. L. Glick, D. A. Sirianni,
    J. S. O'Brien, J. M. Waldrop, A. Kumar, E. G. Hohenstein,
    B. P. Pritchard, B. R. Brooks, H. F. Schaefer III, A. Yu. Sokolov,
    K. Patkowski, A. E. DePrince III, U. Bozkaya, R. A. King,
    F. A. Evangelista, J. M. Turney, T. D. Crawford, C. D. Sherrill,
    J. Chem. Phys. 152(18) 184108 (2020). https://doi.org/10.1063/5.0006002

                            Additional Code Authors
    E. T. Seidl, C. L. Janssen, E. F. Valeev, M. L. Leininger,
    J. F. Gonthier, R. M. Richard, H. R. McAlexander, M. Saitow, X. Wang,
    P. Verma, M. H. Lechner, A. Jiang, S. Behnle, A. G. Heide,
    M. F. Herbst, and D. L. Poole

             Previous Authors, Complete List of Code Contributors,
                       and Citations for Specific Modules
    https://github.com/psi4/psi4/blob/master/codemeta.json
    https://github.com/psi4/psi4/graphs/contributors
    http://psicode.org/psi4manual/master/introduction.html#citing-psifour

    -----------------------------------------------------------------------


    Psi4 started on: Sunday, 17 September 2023 12:48PM

    Process ID: 258105
    Host:       d-19-15-2
    PSIDATADIR: /home/gridsan/kfisher/.conda/envs/p4env/share/psi4
    Memory:     18.6 GiB
    Threads:    1
    
  ==> Input QCSchema <==

--------------------------------------------------------------------------
{'driver': 'energy',
 'extras': {'psiapi': True, 'wfn_qcvars_only': True},
 'id': None,
 'keywords': {'D_CONVERGENCE': 1e-10, 'E_CONVERGENCE': 1e-10, 'function_kwargs': {}},
 'model': {'basis': 'aug-cc-pvtz', 'method': 'ccsd(t)'},
 'molecule': {'atom_labels': ['', '', '', '', '', '', '', '', ''],
              'atomic_numbers': [1, 1, 8, 1, 1, 8, 1, 1, 8],
              'fix_com': True,
              'fix_orientation': True,
              'fix_symmetry': 'c1',
              'fragment_charges': [0.0, 0.0, 0.0],
              'fragment_multiplicities': [1, 1, 1],
              'fragments': [[0, 1, 2], [3, 4, 5], [6, 7, 8]],
              'geometry': [-3.944864211663501, -1.6329459065440974, 0.07821570764091575, -4.35884836589915,
                           -0.24363849651945932, -2.561801174853303, -3.0783544853292195, -1.110817960689864,
                           -1.4589409642613096, 0.027445229513212967, 1.067237947161312, -1.6182803090022568,
                           1.4611229554293308, 3.250870682473111, -3.068137321983968, 1.7250798628387578,
                           1.676697431615796, -2.081599977832243, -0.39048078003657394, 5.885079926357744,
                           -5.114329879348733, -1.9570167027578507, 6.524138947005723, -2.7667346788163605,
                           -0.2757768419679856, 6.73140503441174, -3.5055041158165374],
              'mass_numbers': [1, 1, 16, 1, 1, 16, 1, 1, 16],
              'masses': [1.00782503223, 1.00782503223, 15.99491461957, 1.00782503223, 1.00782503223, 15.99491461957,
                         1.00782503223, 1.00782503223, 15.99491461957],
              'molecular_charge': 0.0,
              'molecular_multiplicity': 1,
              'name': 'H6O3',
              'provenance': {'creator': 'QCElemental',
                             'routine': 'qcelemental.molparse.from_string',
                             'version': 'v0.25.1'},
              'real': [False, False, False, True, True, True, False, False, False],
              'schema_name': 'qcschema_molecule',
              'schema_version': 2,
              'symbols': ['H', 'H', 'O', 'H', 'H', 'O', 'H', 'H', 'O'],
              'validated': True},
 'protocols': {'stdout': True},
 'provenance': {'creator': 'QCElemental', 'routine': 'qcelemental.models.results', 'version': 'v0.25.1'},
 'schema_name': 'qcschema_input',
 'schema_version': 1}
--------------------------------------------------------------------------

Scratch directory: /home/gridsan/kfisher/scratch/

*** tstart() called on d-19-15-2
*** at Tue Sep 19 07:52:15 2023

   => Loading Basis Set <=

    Name: AUG-CC-PVTZ
    Role: ORBITAL
    Keyword: BASIS
    atoms 1-2, 4-5, 7-8 entry H          line    40 file /home/gridsan/kfisher/.conda/envs/p4env/share/psi4/basis/aug-cc-pvtz.gbs 
    atoms 3, 6, 9       entry O          line   331 file /home/gridsan/kfisher/.conda/envs/p4env/share/psi4/basis/aug-cc-pvtz.gbs 


         ---------------------------------------------------------
                                   SCF
               by Justin Turney, Rob Parrish, Andy Simmonett
                          and Daniel G. A. Smith
                              RHF Reference
                        1 Threads,  19073 MiB Core
         ---------------------------------------------------------

  ==> Geometry <==

    Molecular point group: c1
    Full point group: C1

    Geometry (in Bohr), charge = 0, multiplicity = 1:

       Center              X                  Y                   Z               Mass       
    ------------   -----------------  -----------------  -----------------  -----------------
      Gh(H)          -3.944864211664    -1.632945906544     0.078215707641     1.007825032230
      Gh(H)          -4.358848365899    -0.243638496519    -2.561801174853     1.007825032230
      Gh(O)          -3.078354485329    -1.110817960690    -1.458940964261    15.994914619570
         H            0.027445229513     1.067237947161    -1.618280309002     1.007825032230
         H            1.461122955429     3.250870682473    -3.068137321984     1.007825032230
         O            1.725079862839     1.676697431616    -2.081599977832    15.994914619570
      Gh(H)          -0.390480780037     5.885079926358    -5.114329879349     1.007825032230
      Gh(H)          -1.957016702758     6.524138947006    -2.766734678816     1.007825032230
      Gh(O)          -0.275776841968     6.731405034412    -3.505504115817    15.994914619570

  Running in c1 symmetry.

  Rotational constants: A =      0.18796  B =      0.04982  C =      0.04229 [cm^-1]
  Rotational constants: A =   5634.82512  B =   1493.70802  C =   1267.96385 [MHz]
  Nuclear repulsion =    8.893975478623593

  Charge       = 0
  Multiplicity = 1
  Electrons    = 10
  Nalpha       = 5
  Nbeta        = 5

  ==> Algorithm <==

  SCF Algorithm Type is PK.
  DIIS enabled.
  MOM disabled.
  Fractional occupation disabled.
  Guess Type is SAD.
  Energy threshold   = 1.00e-10
  Density threshold  = 1.00e-10
  Integral threshold = 1.00e-12

  ==> Primary Basis <==

  Basis Set: AUG-CC-PVTZ
    Blend: AUG-CC-PVTZ
    Number of shells: 96
    Number of basis functions: 276
    Number of Cartesian functions: 315
    Spherical Harmonics?: true
    Max angular momentum: 3

  ==> Integral Setup <==

  Using in-core PK algorithm.
   Calculation information:
      Number of atoms:                   9
      Number of AO shells:              96
      Number of primitives:            156
      Number of atomic orbitals:       315
      Number of basis functions:       276

      Integral cutoff                 1.00e-12
      Number of threads:                 1

  Performing in-core PK
  Using 1461265302 doubles for integral storage.
  We computed 9503497 shell quartets total.
  Whereas there are 10841496 unique shell quartets.

  ==> DiskJK: Disk-Based J/K Matrices <==

    J tasked:                  Yes
    K tasked:                  Yes
    wK tasked:                  No
    Memory [MiB]:            14305
    Schwarz Cutoff:          1E-12

    OpenMP threads:              1

  Minimum eigenvalue in the overlap matrix is 2.0487947361E-04.
  Reciprocal condition number of the overlap matrix is 1.9192372663E-05.
    Using symmetric orthogonalization.

  ==> Pre-Iterations <==

  SCF Guess: Superposition of Atomic Densities via on-the-fly atomic UHF (no occupation information).

   -------------------------
    Irrep   Nso     Nmo    
   -------------------------
     A        276     276 
   -------------------------
    Total     276     276
   -------------------------

  ==> Iterations <==

                        Total Energy        Delta E     RMS |[F,P]|

   @RHF iter SAD:   -75.43898555413882   -7.54390e+01   0.00000e+00 
   @RHF iter   1:   -75.97102766362042   -5.32042e-01   1.68950e-03 DIIS/ADIIS
   @RHF iter   2:   -76.02250608573112   -5.14784e-02   1.18918e-03 DIIS/ADIIS
   @RHF iter   3:   -76.05618248716611   -3.36764e-02   8.12807e-05 DIIS
   @RHF iter   4:   -76.05661861410501   -4.36127e-04   2.07136e-05 DIIS
   @RHF iter   5:   -76.05665005724116   -3.14431e-05   4.82936e-06 DIIS
   @RHF iter   6:   -76.05665275037745   -2.69314e-06   1.06836e-06 DIIS
   @RHF iter   7:   -76.05665289341125   -1.43034e-07   1.91856e-07 DIIS
   @RHF iter   8:   -76.05665289739883   -3.98758e-09   3.34808e-08 DIIS
   @RHF iter   9:   -76.05665289749975   -1.00911e-10   8.82248e-09 DIIS
   @RHF iter  10:   -76.05665289750624   -6.49436e-12   1.24267e-09 DIIS
   @RHF iter  11:   -76.05665289750625   -1.42109e-14   1.97371e-10 DIIS
   @RHF iter  12:   -76.05665289750647   -2.13163e-13   3.78371e-11 DIIS
  Energy and wave function converged.


  ==> Post-Iterations <==

    Orbital Energies [Eh]
    ---------------------

    Doubly Occupied:                                                      

       1A    -20.571911     2A     -1.336574     3A     -0.703429  
       4A     -0.575706     5A     -0.507303  

    Virtual:                                                              

       6A      0.018381     7A      0.035909     8A      0.047083  
       9A      0.050938    10A      0.064296    11A      0.071776  
      12A      0.105676    13A      0.118263    14A      0.128140  
      15A      0.138698    16A      0.158545    17A      0.164049  
      18A      0.167937    19A      0.177619    20A      0.193263  
      21A      0.209130    22A      0.220986    23A      0.231325  
      24A      0.237563    25A      0.261884    26A      0.270815  
      27A      0.281357    28A      0.291533    29A      0.303635  
      30A      0.307480    31A      0.317173    32A      0.325221  
      33A      0.349060    34A      0.358045    35A      0.370533  
      36A      0.381007    37A      0.389991    38A      0.398024  
      39A      0.403836    40A      0.411012    41A      0.428510  
      42A      0.444107    43A      0.444366    44A      0.473565  
      45A      0.480942    46A      0.551047    47A      0.587985  
      48A      0.624316    49A      0.641280    50A      0.659359  
      51A      0.663914    52A      0.694437    53A      0.726019  
      54A      0.735490    55A      0.744710    56A      0.750886  
      57A      0.764606    58A      0.774064    59A      0.786014  
      60A      0.794082    61A      0.805797    62A      0.821613  
      63A      0.829067    64A      0.832701    65A      0.847417  
      66A      0.866197    67A      0.874389    68A      0.884455  
      69A      0.892637    70A      0.917199    71A      0.927792  
      72A      0.949698    73A      0.954770    74A      0.958740  
      75A      0.971155    76A      0.991310    77A      1.003512  
      78A      1.014243    79A      1.035790    80A      1.038519  
      81A      1.043098    82A      1.060319    83A      1.075172  
      84A      1.089037    85A      1.102336    86A      1.113481  
      87A      1.126050    88A      1.161768    89A      1.174037  
      90A      1.181132    91A      1.182473    92A      1.202059  
      93A      1.225771    94A      1.238050    95A      1.248384  
      96A      1.285371    97A      1.300666    98A      1.330296  
      99A      1.337710   100A      1.394710   101A      1.420877  
     102A      1.432019   103A      1.445486   104A      1.469763  
     105A      1.480662   106A      1.504749   107A      1.563421  
     108A      1.572520   109A      1.598634   110A      1.619014  
     111A      1.672951   112A      1.685403   113A      1.732246  
     114A      1.746996   115A      1.772077   116A      1.784832  
     117A      1.805928   118A      1.837480   119A      1.842368  
     120A      1.851834   121A      1.876720   122A      1.928067  
     123A      1.963123   124A      2.027475   125A      2.049541  
     126A      2.066855   127A      2.197962   128A      2.331566  
     129A      2.347415   130A      2.399944   131A      2.422287  
     132A      2.433300   133A      2.467107   134A      2.474442  
     135A      2.496997   136A      2.502462   137A      2.520682  
     138A      2.548227   139A      2.554689   140A      2.591855  
     141A      2.601559   142A      2.616579   143A      2.640638  
     144A      2.661080   145A      2.700950   146A      2.721308  
     147A      2.755795   148A      2.772667   149A      2.788198  
     150A      2.835444   151A      2.852506   152A      2.868869  
     153A      2.927735   154A      2.989566   155A      3.002327  
     156A      3.045442   157A      3.080497   158A      3.115227  
     159A      3.149062   160A      3.163304   161A      3.196687  
     162A      3.240940   163A      3.244265   164A      3.273349  
     165A      3.290676   166A      3.304417   167A      3.334974  
     168A      3.376803   169A      3.541378   170A      3.559574  
     171A      3.673757   172A      3.690406   173A      3.968633  
     174A      4.060153   175A      4.072372   176A      4.226597  
     177A      4.246904   178A      4.266818   179A      4.328115  
     180A      4.352890   181A      4.382531   182A      4.414371  
     183A      4.431601   184A      4.457042   185A      4.499288  
     186A      4.516242   187A      4.544819   188A      4.555409  
     189A      4.595752   190A      4.599074   191A      4.650825  
     192A      4.656873   193A      4.672312   194A      4.713443  
     195A      4.760946   196A      4.821614   197A      4.915406  
     198A      4.946708   199A      4.975773   200A      5.022963  
     201A      5.051474   202A      5.078740   203A      5.109616  
     204A      5.143021   205A      5.211146   206A      5.221992  
     207A      5.287212   208A      5.311001   209A      5.403465  
     210A      5.413579   211A      5.464943   212A      5.488221  
     213A      5.516795   214A      5.587182   215A      5.645012  
     216A      5.689042   217A      5.749095   218A      5.827017  
     219A      5.928132   220A      6.179885   221A      6.201064  
     222A      6.227214   223A      6.283701   224A      6.380792  
     225A      6.574607   226A      6.588470   227A      6.599131  
     228A      6.819020   229A      6.914647   230A      6.929837  
     231A      7.010593   232A      7.146883   233A      7.288972  
     234A      7.313300   235A      7.362150   236A      7.403373  
     237A      7.533124   238A      7.676594   239A      7.705337  
     240A      7.776152   241A      7.800152   242A      7.842195  
     243A      7.955085   244A      8.020423   245A      8.059354  
     246A      8.130015   247A      8.141291   248A      8.214379  
     249A      8.257080   250A      8.305884   251A      8.610892  
     252A      8.659443   253A      8.680004   254A      8.719534  
     255A      8.826076   256A      9.762526   257A      9.792451  
     258A      9.893229   259A      9.935531   260A     10.000627  
     261A     10.007053   262A     10.200667   263A     10.203074  
     264A     10.985377   265A     11.149352   266A     11.712632  
     267A     11.843225   268A     11.977921   269A     12.073248  
     270A     13.326405   271A     13.485823   272A     13.834919  
     273A     13.865280   274A     16.145925   275A     63.837732  
     276A     64.901921  

    Final Occupation by Irrep:
              A 
    DOCC [     5 ]
    NA   [     5 ]
    NB   [     5 ]

  @RHF Final Energy:   -76.05665289750647

   => Energetics <=

    Nuclear Repulsion Energy =              8.8939754786235934
    One-Electron Energy =                -122.5114127645023103
    Two-Electron Energy =                  37.5607843883722552
    Total Energy =                        -76.0566528975064671

Computation Completed


Properties will be evaluated at   0.000000,   0.000000,   0.000000 [a0]

Properties computed using the SCF density matrix


 Multipole Moments:

 ------------------------------------------------------------------------------------
     Multipole            Electronic (a.u.)      Nuclear  (a.u.)        Total (a.u.)
 ------------------------------------------------------------------------------------

 L = 1.  Multiply by 2.5417464519 to convert [e a0] to [Debye]
 Dipole X            :        -15.9699132           15.2892071           -0.6807061
 Dipole Y            :        -17.3980050           17.7316881            0.3336830
 Dipole Z            :         21.1584808          -21.3392175           -0.1807367
 Magnitude           :                                                    0.7793401

 ------------------------------------------------------------------------------------

*** tstop() called on d-19-15-2 at Tue Sep 19 07:53:43 2023
Module time:
	user time   =      81.96 seconds =       1.37 minutes
	system time =       5.19 seconds =       0.09 minutes
	total time  =         88 seconds =       1.47 minutes
Total time:
	user time   =   91173.01 seconds =    1519.55 minutes
	system time =   46627.53 seconds =     777.13 minutes
	total time  =     155119 seconds =    2585.32 minutes
 MINTS: Wrapper to libmints.
   by Justin Turney

   Calculation information:
      Number of threads:                 1
      Number of atoms:                   9
      Number of AO shells:              96
      Number of SO shells:              96
      Number of primitives:            156
      Number of atomic orbitals:       315
      Number of basis functions:       276

      Number of irreps:                  1
      Integral cutoff                 1.00e-12
      Number of functions per irrep: [ 276 ]

 OEINTS: Overlap, kinetic, potential, dipole, and quadrupole integrals
         stored in file 35.

      Computing two-electron integrals...done
      Computed 591707682 non-zero two-electron integrals.
        Stored in file 33.


*** tstart() called on d-19-15-2
*** at Tue Sep 19 07:54:40 2023


	Wfn Parameters:
	--------------------
	Wavefunction         = CCSD_T
	Number of irreps     = 1
	Number of MOs        = 276
	Number of active MOs = 276
	AO-Basis             = NONE
	Semicanonical        = false
	Reference            = RHF
	Print Level          = 1

	IRREP	# MOs	# FZDC	# DOCC	# SOCC	# VIRT	# FZVR
	-----	-----	------	------	------	------	------
	 A	   276	    0	    5	    0	    271	    0
	Transforming integrals...
	IWL integrals will be deleted.
	(OO|OO)...
	Presorting SO-basis two-electron integrals.
	Sorting File: SO Ints (nn|nn) nbuckets = 1
	Constructing frozen core operators
	Starting first half-transformation.
	Sorting half-transformed integrals.
	First half integral transformation complete.
	Starting second half-transformation.
	Two-electron integral transformation complete.
	(OO|OV)...
	Starting second half-transformation.
	Two-electron integral transformation complete.
	(OO|VV)...
	Starting second half-transformation.
	Two-electron integral transformation complete.
	(OV|OO)...
	Starting first half-transformation.
	Sorting half-transformed integrals.
	First half integral transformation complete.
	Starting second half-transformation.
	Two-electron integral transformation complete.
	(OV|OV)...
	Starting second half-transformation.
	Two-electron integral transformation complete.
	(OV|VV)...
	Starting second half-transformation.
	Two-electron integral transformation complete.
	(VV|OO)...
	Starting first half-transformation.
	Sorting half-transformed integrals.
	First half integral transformation complete.
	Starting second half-transformation.
	Two-electron integral transformation complete.
	(VV|OV)...
	Starting second half-transformation.
	Two-electron integral transformation complete.
	(VV|VV)...
	Starting second half-transformation.
	Two-electron integral transformation complete.
	Frozen core energy     =      0.00000000000000

	Size of irrep 0 of <ab|cd> integrals:   5393.580 (MW) /  43148.644 (MB)
	Total:                                  5393.580 (MW) /  43148.644 (MB)

	Size of irrep 0 of <ia|bc> integrals:     99.513 (MW) /    796.100 (MB)
	Total:                                    99.513 (MW) /    796.100 (MB)

	Size of irrep 0 of tijab amplitudes:       1.836 (MW) /     14.688 (MB)
	Total:                                     1.836 (MW) /     14.688 (MB)

	Nuclear Rep. energy          =      8.89397547862359
	SCF energy                   =    -76.05665289750647
	One-electron energy          =   -122.51141277474166
	Two-electron energy          =     37.56078439861184
	Reference energy             =    -76.05665289750624

*** tstop() called on d-19-15-2 at Tue Sep 19 08:12:04 2023
Module time:
	user time   =     524.98 seconds =       8.75 minutes
	system time =     334.08 seconds =       5.57 minutes
	total time  =       1044 seconds =      17.40 minutes
Total time:
	user time   =   91740.88 seconds =    1529.01 minutes
	system time =   46975.21 seconds =     782.92 minutes
	total time  =     156220 seconds =    2603.67 minutes
            **************************
            *                        *
            *        CCENERGY        *
            *                        *
            **************************

    Nuclear Rep. energy (wfn)     =    8.893975478623593
    SCF energy          (wfn)     =  -76.056652897506467
    Reference energy    (file100) =  -76.056652897506240

    Input parameters:
    -----------------
    Wave function   =     CCSD_T
    Reference wfn   =     RHF
    Brueckner       =     No
    Memory (Mbytes) =     20000.0
    Maxiter         =     50
    R_Convergence   =     1.0e-07
    E_Convergence   =     1.0e-10
    Restart         =     Yes
    DIIS            =     Yes
    AO Basis        =     NONE
    ABCD            =     NEW
    Cache Level     =     2
    Cache Type      =     LOW
    Print Level     =     1
    Num. of threads =     1
    # Amps to Print =     10
    Print MP2 Amps? =     No
    Analyze T2 Amps =     No
    Print Pair Ener =     No
    Local CC        =     No
    SCS-MP2         =     False
    SCSN-MP2        =     False
    SCS-CCSD        =     False

MP2 correlation energy -0.2867830869295731
                Solving CC Amplitude Equations
                ------------------------------
  Iter             Energy              RMS        T1Diag      D1Diag    New D1Diag    D2Diag
  ----     ---------------------    ---------   ----------  ----------  ----------   --------
     0        -0.286783086929573    0.000e+00    0.000000    0.000000    0.000000    0.120607
     1        -0.284470150097497    3.688e-02    0.007899    0.017830    0.017830    0.123145
     2        -0.289781942903780    1.326e-02    0.007729    0.017593    0.017593    0.127970
     3        -0.291233499748183    5.233e-03    0.008992    0.021031    0.021031    0.130357
     4        -0.291099577974437    1.168e-03    0.009157    0.021515    0.021515    0.130568
     5        -0.291108964264435    4.491e-04    0.009247    0.021823    0.021823    0.130630
     6        -0.291118456150228    1.297e-04    0.009273    0.021919    0.021919    0.130630
     7        -0.291116978109830    4.715e-05    0.009279    0.021945    0.021945    0.130621
     8        -0.291116083849071    1.493e-05    0.009281    0.021952    0.021952    0.130618
     9        -0.291116214607975    5.485e-06    0.009281    0.021954    0.021954    0.130618
    10        -0.291115998282487    2.053e-06    0.009282    0.021955    0.021955    0.130618
    11        -0.291115977382209    7.368e-07    0.009282    0.021955    0.021955    0.130618
    12        -0.291115965760801    3.094e-07    0.009282    0.021955    0.021955    0.130618
    13        -0.291115959769830    1.059e-07    0.009282    0.021955    0.021955    0.130618
    14        -0.291115959300187    3.684e-08    0.009282    0.021955    0.021955    0.130618
    15        -0.291115959490678    1.297e-08    0.009282    0.021955    0.021955    0.130618
    16        -0.291115959438102    4.766e-09    0.009282    0.021955    0.021955    0.130618
    17        -0.291115959426970    1.791e-09    0.009282    0.021955    0.021955    0.130618

    Iterations converged.


    Largest TIA Amplitudes:
              4   9        -0.0097749687
              4  13         0.0067029915
              3   6         0.0065296414
              4   2         0.0061895929
              4  18        -0.0050222716
              4  34         0.0049426781
              4  12         0.0048689314
              2 121        -0.0045992152
              4  31        -0.0045847150
              4  36         0.0043292705

    Largest TIjAb Amplitudes:
      2   2  45  45        -0.0111705871
      2   2  42  42        -0.0111436571
      3   3  39  39        -0.0072070455
      2   3  45  45        -0.0071466635
      3   2  45  45        -0.0071466635
      3   3  45  45        -0.0071018869
      0   0 268 268        -0.0067820661
      3   3  42  42        -0.0063720581
      4   4 105 105        -0.0060683195
      2   3  42  39         0.0060389405

    SCF energy       (wfn)                    =  -76.056652897506467
    Reference energy (file100)                =  -76.056652897506240

    Opposite-spin MP2 correlation energy      =   -0.217852217621657
    Same-spin MP2 correlation energy          =   -0.068930869307916
    Singles MP2 correlation energy            =   -0.000000000000000
    MP2 correlation energy                    =   -0.286783086929573
      * MP2 total energy                      =  -76.343435984435814

    Opposite-spin CCSD correlation energy     =   -0.229984704250717
    Same-spin CCSD correlation energy         =   -0.061131255176252
    Singles CCSD correlation energy           =    0.000000000000000
    CCSD correlation energy                   =   -0.291115959426970
      * CCSD total energy                     =  -76.347768856933214

            **************************
            *                        *
            *        CCTRIPLES       *
            *                        *
            **************************


    Wave function   =    CCSD_T
    Reference wfn   =      RHF

    Nuclear Rep. energy (wfn)                =    8.893975478623593
    SCF energy          (wfn)                =  -76.056652897506467
    Reference energy    (file100)            =  -76.056652897506240
    CCSD energy         (file100)            =   -0.291115959426970
    Total CCSD energy   (file100)            =  -76.347768856933214

    Number of ijk index combinations:               35
    Memory available in words               :      2500000000
    Approx. words needed per explicit thread:        79610044
    Number of threads for explicit ijk threading:    1

    MKL num_threads set to 1 for explicit threading.

    (T) energy                                =   -0.009119422203994
      * CCSD(T) total energy                  =  -76.356888279137209


    Psi4 stopped on: Tuesday, 19 September 2023 08:24AM
    Psi4 wall time for execution: 0:31:59.12


    -----------------------------------------------------------------------
          Psi4: An Open-Source Ab Initio Electronic Structure Package
                               Psi4 1.7 release

                         Git: Rev {HEAD} 6ce35a5 


    D. G. A. Smith, L. A. Burns, A. C. Simmonett, R. M. Parrish,
    M. C. Schieber, R. Galvelis, P. Kraus, H. Kruse, R. Di Remigio,
    A. Alenaizan, A. M. James, S. Lehtola, J. P. Misiewicz, M. Scheurer,
    R. A. Shaw, J. B. Schriber, Y. Xie, Z. L. Glick, D. A. Sirianni,
    J. S. O'Brien, J. M. Waldrop, A. Kumar, E. G. Hohenstein,
    B. P. Pritchard, B. R. Brooks, H. F. Schaefer III, A. Yu. Sokolov,
    K. Patkowski, A. E. DePrince III, U. Bozkaya, R. A. King,
    F. A. Evangelista, J. M. Turney, T. D. Crawford, C. D. Sherrill,
    J. Chem. Phys. 152(18) 184108 (2020). https://doi.org/10.1063/5.0006002

                            Additional Code Authors
    E. T. Seidl, C. L. Janssen, E. F. Valeev, M. L. Leininger,
    J. F. Gonthier, R. M. Richard, H. R. McAlexander, M. Saitow, X. Wang,
    P. Verma, M. H. Lechner, A. Jiang, S. Behnle, A. G. Heide,
    M. F. Herbst, and D. L. Poole

             Previous Authors, Complete List of Code Contributors,
                       and Citations for Specific Modules
    https://github.com/psi4/psi4/blob/master/codemeta.json
    https://github.com/psi4/psi4/graphs/contributors
    http://psicode.org/psi4manual/master/introduction.html#citing-psifour

    -----------------------------------------------------------------------


    Psi4 started on: Sunday, 17 September 2023 12:48PM

    Process ID: 258105
    Host:       d-19-15-2
    PSIDATADIR: /home/gridsan/kfisher/.conda/envs/p4env/share/psi4
    Memory:     18.6 GiB
    Threads:    1
    
  ==> Input QCSchema <==

--------------------------------------------------------------------------
{'driver': 'energy',
 'extras': {'psiapi': True, 'wfn_qcvars_only': True},
 'id': None,
 'keywords': {'D_CONVERGENCE': 1e-10, 'E_CONVERGENCE': 1e-10, 'function_kwargs': {}},
 'model': {'basis': 'aug-cc-pvtz', 'method': 'ccsd(t)'},
 'molecule': {'atom_labels': ['', '', '', '', '', '', '', '', ''],
              'atomic_numbers': [1, 1, 8, 1, 1, 8, 1, 1, 8],
              'fix_com': True,
              'fix_orientation': True,
              'fix_symmetry': 'c1',
              'fragment_charges': [0.0, 0.0, 0.0],
              'fragment_multiplicities': [1, 1, 1],
              'fragments': [[0, 1, 2], [3, 4, 5], [6, 7, 8]],
              'geometry': [-3.944864211663501, -1.6329459065440974, 0.07821570764091575, -4.35884836589915,
                           -0.24363849651945932, -2.561801174853303, -3.0783544853292195, -1.110817960689864,
                           -1.4589409642613096, 0.027445229513212967, 1.067237947161312, -1.6182803090022568,
                           1.4611229554293308, 3.250870682473111, -3.068137321983968, 1.7250798628387578,
                           1.676697431615796, -2.081599977832243, -0.39048078003657394, 5.885079926357744,
                           -5.114329879348733, -1.9570167027578507, 6.524138947005723, -2.7667346788163605,
                           -0.2757768419679856, 6.73140503441174, -3.5055041158165374],
              'mass_numbers': [1, 1, 16, 1, 1, 16, 1, 1, 16],
              'masses': [1.00782503223, 1.00782503223, 15.99491461957, 1.00782503223, 1.00782503223, 15.99491461957,
                         1.00782503223, 1.00782503223, 15.99491461957],
              'molecular_charge': 0.0,
              'molecular_multiplicity': 1,
              'name': 'H6O3',
              'provenance': {'creator': 'QCElemental',
                             'routine': 'qcelemental.molparse.from_string',
                             'version': 'v0.25.1'},
              'real': [False, False, False, True, True, True, True, True, True],
              'schema_name': 'qcschema_molecule',
              'schema_version': 2,
              'symbols': ['H', 'H', 'O', 'H', 'H', 'O', 'H', 'H', 'O'],
              'validated': True},
 'protocols': {'stdout': True},
 'provenance': {'creator': 'QCElemental', 'routine': 'qcelemental.models.results', 'version': 'v0.25.1'},
 'schema_name': 'qcschema_input',
 'schema_version': 1}
--------------------------------------------------------------------------

Scratch directory: /home/gridsan/kfisher/scratch/

*** tstart() called on d-19-15-2
*** at Tue Sep 19 08:24:16 2023

   => Loading Basis Set <=

    Name: AUG-CC-PVTZ
    Role: ORBITAL
    Keyword: BASIS
    atoms 1-2, 4-5, 7-8 entry H          line    40 file /home/gridsan/kfisher/.conda/envs/p4env/share/psi4/basis/aug-cc-pvtz.gbs 
    atoms 3, 6, 9       entry O          line   331 file /home/gridsan/kfisher/.conda/envs/p4env/share/psi4/basis/aug-cc-pvtz.gbs 


         ---------------------------------------------------------
                                   SCF
               by Justin Turney, Rob Parrish, Andy Simmonett
                          and Daniel G. A. Smith
                              RHF Reference
                        1 Threads,  19073 MiB Core
         ---------------------------------------------------------

  ==> Geometry <==

    Molecular point group: c1
    Full point group: C1

    Geometry (in Bohr), charge = 0, multiplicity = 1:

       Center              X                  Y                   Z               Mass       
    ------------   -----------------  -----------------  -----------------  -----------------
      Gh(H)          -3.944864211664    -1.632945906544     0.078215707641     1.007825032230
      Gh(H)          -4.358848365899    -0.243638496519    -2.561801174853     1.007825032230
      Gh(O)          -3.078354485329    -1.110817960690    -1.458940964261    15.994914619570
         H            0.027445229513     1.067237947161    -1.618280309002     1.007825032230
         H            1.461122955429     3.250870682473    -3.068137321984     1.007825032230
         O            1.725079862839     1.676697431616    -2.081599977832    15.994914619570
         H           -0.390480780037     5.885079926358    -5.114329879349     1.007825032230
         H           -1.957016702758     6.524138947006    -2.766734678816     1.007825032230
         O           -0.275776841968     6.731405034412    -3.505504115817    15.994914619570

  Running in c1 symmetry.

  Rotational constants: A =      0.18796  B =      0.04982  C =      0.04229 [cm^-1]
  Rotational constants: A =   5634.82512  B =   1493.70802  C =   1267.96385 [MHz]
  Nuclear repulsion =   36.274517689099596

  Charge       = 0
  Multiplicity = 1
  Electrons    = 20
  Nalpha       = 10
  Nbeta        = 10

  ==> Algorithm <==

  SCF Algorithm Type is PK.
  DIIS enabled.
  MOM disabled.
  Fractional occupation disabled.
  Guess Type is SAD.
  Energy threshold   = 1.00e-10
  Density threshold  = 1.00e-10
  Integral threshold = 1.00e-12

  ==> Primary Basis <==

  Basis Set: AUG-CC-PVTZ
    Blend: AUG-CC-PVTZ
    Number of shells: 96
    Number of basis functions: 276
    Number of Cartesian functions: 315
    Spherical Harmonics?: true
    Max angular momentum: 3

  ==> Integral Setup <==

  Using in-core PK algorithm.
   Calculation information:
      Number of atoms:                   9
      Number of AO shells:              96
      Number of primitives:            156
      Number of atomic orbitals:       315
      Number of basis functions:       276

      Integral cutoff                 1.00e-12
      Number of threads:                 1

  Performing in-core PK
  Using 1461265302 doubles for integral storage.
  We computed 9503497 shell quartets total.
  Whereas there are 10841496 unique shell quartets.

  ==> DiskJK: Disk-Based J/K Matrices <==

    J tasked:                  Yes
    K tasked:                  Yes
    wK tasked:                  No
    Memory [MiB]:            14305
    Schwarz Cutoff:          1E-12

    OpenMP threads:              1

  Minimum eigenvalue in the overlap matrix is 2.0487947361E-04.
  Reciprocal condition number of the overlap matrix is 1.9192372663E-05.
    Using symmetric orthogonalization.

  ==> Pre-Iterations <==

  SCF Guess: Superposition of Atomic Densities via on-the-fly atomic UHF (no occupation information).

   -------------------------
    Irrep   Nso     Nmo    
   -------------------------
     A        276     276 
   -------------------------
    Total     276     276
   -------------------------

  ==> Iterations <==

                        Total Energy        Delta E     RMS |[F,P]|

   @RHF iter SAD:  -150.99555903046291   -1.50996e+02   0.00000e+00 
   @RHF iter   1:  -151.95201589647098   -9.56457e-01   2.33281e-03 DIIS/ADIIS
   @RHF iter   2:  -152.05415870676632   -1.02143e-01   1.58160e-03 DIIS/ADIIS
   @RHF iter   3:  -152.11327374366934   -5.91150e-02   1.17162e-04 DIIS/ADIIS
   @RHF iter   4:  -152.11419427694540   -9.20533e-04   3.03210e-05 DIIS
   @RHF iter   5:  -152.11425886769646   -6.45908e-05   1.00360e-05 DIIS
   @RHF iter   6:  -152.11426579819755   -6.93050e-06   4.48738e-06 DIIS
   @RHF iter   7:  -152.11426686273853   -1.06454e-06   9.21691e-07 DIIS
   @RHF iter   8:  -152.11426695610109   -9.33626e-08   1.70375e-07 DIIS
   @RHF iter   9:  -152.11426695924715   -3.14606e-09   3.38400e-08 DIIS
   @RHF iter  10:  -152.11426695937124   -1.24089e-10   1.02504e-08 DIIS
   @RHF iter  11:  -152.11426695938204   -1.08002e-11   1.81528e-09 DIIS
   @RHF iter  12:  -152.11426695938283   -7.95808e-13   4.83737e-10 DIIS
   @RHF iter  13:  -152.11426695938269    1.42109e-13   1.58229e-10 DIIS
   @RHF iter  14:  -152.11426695938226    4.26326e-13   4.66160e-11 DIIS
  Energy and wave function converged.


  ==> Post-Iterations <==

    Orbital Energies [Eh]
    ---------------------

    Doubly Occupied:                                                      

       1A    -20.594233     2A    -20.555065     3A     -1.374805  
       4A     -1.322059     5A     -0.737193     6A     -0.690823  
       7A     -0.608468     8A     -0.573347     9A     -0.525742  
      10A     -0.491714  

    Virtual:                                                              

      11A      0.015012    12A      0.035636    13A      0.044538  
      14A      0.050966    15A      0.066212    16A      0.075279  
      17A      0.105665    18A      0.123413    19A      0.133636  
      20A      0.160419    21A      0.167690    22A      0.170993  
      23A      0.175867    24A      0.183956    25A      0.189297  
      26A      0.211124    27A      0.222457    28A      0.230157  
      29A      0.232137    30A      0.257783    31A      0.258638  
      32A      0.270235    33A      0.283203    34A      0.298789  
      35A      0.306193    36A      0.327006    37A      0.342847  
      38A      0.353867    39A      0.371567    40A      0.379763  
      41A      0.383982    42A      0.390695    43A      0.400608  
      44A      0.415260    45A      0.430431    46A      0.439582  
      47A      0.451299    48A      0.456176    49A      0.477337  
      50A      0.484145    51A      0.565438    52A      0.585193  
      53A      0.591541    54A      0.616903    55A      0.638742  
      56A      0.651754    57A      0.673286    58A      0.688916  
      59A      0.711518    60A      0.742800    61A      0.753570  
      62A      0.762015    63A      0.775309    64A      0.787148  
      65A      0.791375    66A      0.804844    67A      0.822109  
      68A      0.835869    69A      0.847504    70A      0.865678  
      71A      0.873590    72A      0.883319    73A      0.894143  
      74A      0.909829    75A      0.916581    76A      0.943538  
      77A      0.945760    78A      0.959432    79A      0.972085  
      80A      0.981355    81A      1.002313    82A      1.009122  
      83A      1.019180    84A      1.032965    85A      1.041679  
      86A      1.050976    87A      1.054760    88A      1.065205  
      89A      1.076548    90A      1.085357    91A      1.093897  
      92A      1.120035    93A      1.151113    94A      1.157637  
      95A      1.172627    96A      1.177236    97A      1.196114  
      98A      1.222662    99A      1.228154   100A      1.260027  
     101A      1.274695   102A      1.281553   103A      1.313829  
     104A      1.323523   105A      1.356381   106A      1.394541  
     107A      1.422412   108A      1.432526   109A      1.462198  
     110A      1.487895   111A      1.527651   112A      1.545010  
     113A      1.564936   114A      1.573762   115A      1.616810  
     116A      1.659212   117A      1.677279   118A      1.692372  
     119A      1.705135   120A      1.741588   121A      1.786897  
     122A      1.809352   123A      1.828122   124A      1.843228  
     125A      1.875627   126A      1.948689   127A      1.980078  
     128A      2.015876   129A      2.053992   130A      2.075765  
     131A      2.153717   132A      2.200075   133A      2.309495  
     134A      2.322394   135A      2.374004   136A      2.392625  
     137A      2.397547   138A      2.417373   139A      2.453925  
     140A      2.466785   141A      2.486229   142A      2.491859  
     143A      2.513482   144A      2.526337   145A      2.550508  
     146A      2.560587   147A      2.595907   148A      2.603076  
     149A      2.637545   150A      2.665646   151A      2.680937  
     152A      2.702660   153A      2.713576   154A      2.741065  
     155A      2.761709   156A      2.784150   157A      2.820844  
     158A      2.840339   159A      2.853450   160A      2.879625  
     161A      2.910902   162A      2.937271   163A      2.997207  
     164A      3.031501   165A      3.086192   166A      3.130623  
     167A      3.149721   168A      3.203382   169A      3.238229  
     170A      3.328744   171A      3.375658   172A      3.555558  
     173A      3.684231   174A      3.785337   175A      3.815348  
     176A      3.944619   177A      4.024204   178A      4.078627  
     179A      4.086028   180A      4.183775   181A      4.207821  
     182A      4.237872   183A      4.239361   184A      4.281625  
     185A      4.316688   186A      4.329929   187A      4.342800  
     188A      4.401551   189A      4.423105   190A      4.435108  
     191A      4.452524   192A      4.462587   193A      4.494523  
     194A      4.518549   195A      4.530176   196A      4.545587  
     197A      4.587421   198A      4.631936   199A      4.651647  
     200A      4.704413   201A      4.762884   202A      4.795126  
     203A      4.842124   204A      4.908967   205A      4.933010  
     206A      4.961417   207A      5.019857   208A      5.058917  
     209A      5.106308   210A      5.137268   211A      5.193425  
     212A      5.233791   213A      5.240063   214A      5.271835  
     215A      5.304610   216A      5.361266   217A      5.402393  
     218A      5.420950   219A      5.466879   220A      5.517122  
     221A      5.574919   222A      5.676558   223A      5.699823  
     224A      5.759439   225A      5.832884   226A      6.191034  
     227A      6.205842   228A      6.238601   229A      6.281604  
     230A      6.548443   231A      6.586075   232A      6.611165  
     233A      6.741890   234A      6.825655   235A      6.902982  
     236A      6.927880   237A      6.950892   238A      7.143990  
     239A      7.170611   240A      7.267359   241A      7.279534  
     242A      7.296775   243A      7.324296   244A      7.332419  
     245A      7.363360   246A      7.375010   247A      7.389958  
     248A      7.469666   249A      7.516016   250A      7.654390  
     251A      7.720722   252A      7.777274   253A      7.838308  
     254A      7.869307   255A      7.952254   256A      7.970703  
     257A      8.051022   258A      8.068209   259A      8.140297  
     260A      8.253804   261A      8.608725   262A      8.667042  
     263A      8.738825   264A      8.791723   265A      9.762508  
     266A      9.934095   267A     10.001302   268A     10.200937  
     269A     10.983384   270A     11.711684   271A     11.976720  
     272A     13.324865   273A     13.862926   274A     15.725934  
     275A     16.290276   276A     63.836222  

    Final Occupation by Irrep:
              A 
    DOCC [    10 ]
    NA   [    10 ]
    NB   [    10 ]

  @RHF Final Energy:  -152.11426695938226

   => Energetics <=

    Nuclear Repulsion Energy =             36.2745176890995964
    One-Electron Energy =                -281.8306708647225491
    Two-Electron Energy =                  93.4418862162407038
    Total Energy =                       -152.1142669593822632

Computation Completed


Properties will be evaluated at   0.000000,   0.000000,   0.000000 [a0]

Properties computed using the SCF density matrix


 Multipole Moments:

 ------------------------------------------------------------------------------------
     Multipole            Electronic (a.u.)      Nuclear  (a.u.)        Total (a.u.)
 ------------------------------------------------------------------------------------

 L = 1.  Multiply by 2.5417464519 to convert [e a0] to [Debye]
 Dipole X            :        -12.0731104           10.7354949           -1.3376156
 Dipole Y            :        -83.8689784           83.9921472            0.1231688
 Dipole Z            :         56.7753227          -57.2643149           -0.4889922
 Magnitude           :                                                    1.4295102

 ------------------------------------------------------------------------------------

*** tstop() called on d-19-15-2 at Tue Sep 19 08:26:24 2023
Module time:
	user time   =      89.27 seconds =       1.49 minutes
	system time =       8.04 seconds =       0.13 minutes
	total time  =        128 seconds =       2.13 minutes
Total time:
	user time   =   92122.02 seconds =    1535.37 minutes
	system time =   47343.11 seconds =     789.05 minutes
	total time  =     157080 seconds =    2618.00 minutes
 MINTS: Wrapper to libmints.
   by Justin Turney

   Calculation information:
      Number of threads:                 1
      Number of atoms:                   9
      Number of AO shells:              96
      Number of SO shells:              96
      Number of primitives:            156
      Number of atomic orbitals:       315
      Number of basis functions:       276

      Number of irreps:                  1
      Integral cutoff                 1.00e-12
      Number of functions per irrep: [ 276 ]

 OEINTS: Overlap, kinetic, potential, dipole, and quadrupole integrals
         stored in file 35.

      Computing two-electron integrals...done
      Computed 591707682 non-zero two-electron integrals.
        Stored in file 33.


*** tstart() called on d-19-15-2
*** at Tue Sep 19 08:27:46 2023


	Wfn Parameters:
	--------------------
	Wavefunction         = CCSD_T
	Number of irreps     = 1
	Number of MOs        = 276
	Number of active MOs = 276
	AO-Basis             = NONE
	Semicanonical        = false
	Reference            = RHF
	Print Level          = 1

	IRREP	# MOs	# FZDC	# DOCC	# SOCC	# VIRT	# FZVR
	-----	-----	------	------	------	------	------
	 A	   276	    0	    10	    0	    266	    0
	Transforming integrals...
	IWL integrals will be deleted.
	(OO|OO)...
	Presorting SO-basis two-electron integrals.
	Sorting File: SO Ints (nn|nn) nbuckets = 1
	Constructing frozen core operators
	Starting first half-transformation.
	Sorting half-transformed integrals.
	First half integral transformation complete.
	Starting second half-transformation.
	Two-electron integral transformation complete.
	(OO|OV)...
	Starting second half-transformation.
	Two-electron integral transformation complete.
	(OO|VV)...
	Starting second half-transformation.
	Two-electron integral transformation complete.
	(OV|OO)...
	Starting first half-transformation.
	Sorting half-transformed integrals.
	First half integral transformation complete.
	Starting second half-transformation.
	Two-electron integral transformation complete.
	(OV|OV)...
	Starting second half-transformation.
	Two-electron integral transformation complete.
	(OV|VV)...
	Starting second half-transformation.
	Two-electron integral transformation complete.
	(VV|OO)...
	Starting first half-transformation.
	Sorting half-transformed integrals.
	First half integral transformation complete.
	Starting second half-transformation.
	Two-electron integral transformation complete.
	(VV|OV)...
	Starting second half-transformation.
	Two-electron integral transformation complete.
	(VV|VV)...
	Starting second half-transformation.
	Two-electron integral transformation complete.
	Frozen core energy     =      0.00000000000000

	Size of irrep 0 of <ab|cd> integrals:   5006.412 (MW) /  40051.292 (MB)
	Total:                                  5006.412 (MW) /  40051.292 (MB)

	Size of irrep 0 of <ia|bc> integrals:    188.211 (MW) /   1505.688 (MB)
	Total:                                   188.211 (MW) /   1505.688 (MB)

	Size of irrep 0 of tijab amplitudes:       7.076 (MW) /     56.605 (MB)
	Total:                                     7.076 (MW) /     56.605 (MB)

	Nuclear Rep. energy          =     36.27451768909960
	SCF energy                   =   -152.11426695938226
	One-electron energy          =   -281.83067083514896
	Two-electron energy          =     93.44188618666702
	Reference energy             =   -152.11426695938235

*** tstop() called on d-19-15-2 at Tue Sep 19 08:46:52 2023
Module time:
	user time   =     521.82 seconds =       8.70 minutes
	system time =     360.76 seconds =       6.01 minutes
	total time  =       1146 seconds =      19.10 minutes
Total time:
	user time   =   92688.46 seconds =    1544.81 minutes
	system time =   47718.94 seconds =     795.32 minutes
	total time  =     158308 seconds =    2638.47 minutes
            **************************
            *                        *
            *        CCENERGY        *
            *                        *
            **************************

    Nuclear Rep. energy (wfn)     =   36.274517689099596
    SCF energy          (wfn)     = -152.114266959382263
    Reference energy    (file100) = -152.114266959382348

    Input parameters:
    -----------------
    Wave function   =     CCSD_T
    Reference wfn   =     RHF
    Brueckner       =     No
    Memory (Mbytes) =     20000.0
    Maxiter         =     50
    R_Convergence   =     1.0e-07
    E_Convergence   =     1.0e-10
    Restart         =     Yes
    DIIS            =     Yes
    AO Basis        =     NONE
    ABCD            =     NEW
    Cache Level     =     2
    Cache Type      =     LOW
    Print Level     =     1
    Num. of threads =     1
    # Amps to Print =     10
    Print MP2 Amps? =     No
    Analyze T2 Amps =     No
    Print Pair Ener =     No
    Local CC        =     No
    SCS-MP2         =     False
    SCSN-MP2        =     False
    SCS-CCSD        =     False

MP2 correlation energy -0.5742203716093405
                Solving CC Amplitude Equations
                ------------------------------
  Iter             Energy              RMS        T1Diag      D1Diag    New D1Diag    D2Diag
  ----     ---------------------    ---------   ----------  ----------  ----------   --------
     0        -0.574220371609340    0.000e+00    0.000000    0.000000    0.000000    0.121448
     1        -0.569688472921447    5.206e-02    0.008024    0.019219    0.019219    0.123250
     2        -0.580215695119460    1.845e-02    0.007876    0.018843    0.018843    0.128082
     3        -0.583049301375513    7.403e-03    0.009204    0.022676    0.022676    0.130380
     4        -0.582770139515377    1.642e-03    0.009388    0.023213    0.023213    0.130588
     5        -0.582786300256366    6.767e-04    0.009493    0.023616    0.023616    0.130649
     6        -0.582805097377711    2.003e-04    0.009524    0.023748    0.023748    0.130649
     7        -0.582801066688925    8.005e-05    0.009532    0.023793    0.023793    0.130637
     8        -0.582798870149687    2.773e-05    0.009534    0.023808    0.023808    0.130634
     9        -0.582799393249676    1.181e-05    0.009535    0.023814    0.023814    0.130634
    10        -0.582798721662522    5.455e-06    0.009535    0.023817    0.023817    0.130634
    11        -0.582798756670614    2.198e-06    0.009535    0.023817    0.023817    0.130634
    12        -0.582798722258521    9.626e-07    0.009535    0.023817    0.023817    0.130634
[...]
         O           -0.275776841968     6.731405034412    -3.505504115817    15.994914619570

  Running in c1 symmetry.

  Rotational constants: A =      0.79474  B =      0.05218  C =      0.04922 [cm^-1]
  Rotational constants: A =  23825.62831  B =   1564.16780  C =   1475.43437 [MHz]
  Nuclear repulsion =   36.274517689099596

  Charge       = 0
  Multiplicity = 1
  Electrons    = 20
  Nalpha       = 10
  Nbeta        = 10

  ==> Algorithm <==

  SCF Algorithm Type is PK.
  DIIS enabled.
  MOM disabled.
  Fractional occupation disabled.
  Guess Type is SAD.
  Energy threshold   = 1.00e-10
  Density threshold  = 1.00e-10
  Integral threshold = 1.00e-12

  ==> Primary Basis <==

  Basis Set: AUG-CC-PVTZ
    Blend: AUG-CC-PVTZ
    Number of shells: 64
    Number of basis functions: 184
    Number of Cartesian functions: 210
    Spherical Harmonics?: true
    Max angular momentum: 3

  ==> Integral Setup <==

  Using in-core PK algorithm.
   Calculation information:
      Number of atoms:                   6
      Number of AO shells:              64
      Number of primitives:            104
      Number of atomic orbitals:       210
      Number of basis functions:       184

      Integral cutoff                 1.00e-12
      Number of threads:                 1

  Performing in-core PK
  Using 289697420 doubles for integral storage.
  We computed 2114273 shell quartets total.
  Whereas there are 2164240 unique shell quartets.

  ==> DiskJK: Disk-Based J/K Matrices <==

    J tasked:                  Yes
    K tasked:                  Yes
    wK tasked:                  No
    Memory [MiB]:            14305
    Schwarz Cutoff:          1E-12

    OpenMP threads:              1

  Minimum eigenvalue in the overlap matrix is 2.6131531893E-04.
  Reciprocal condition number of the overlap matrix is 2.7407806697E-05.
    Using symmetric orthogonalization.

  ==> Pre-Iterations <==

  SCF Guess: Superposition of Atomic Densities via on-the-fly atomic UHF (no occupation information).

   -------------------------
    Irrep   Nso     Nmo    
   -------------------------
     A        184     184 
   -------------------------
    Total     184     184
   -------------------------

  ==> Iterations <==

                        Total Energy        Delta E     RMS |[F,P]|

   @RHF iter SAD:  -150.99555903046286   -1.50996e+02   0.00000e+00 
   @RHF iter   1:  -151.95197595650453   -9.56417e-01   3.49912e-03 DIIS/ADIIS
   @RHF iter   2:  -152.05411095567160   -1.02135e-01   2.37228e-03 DIIS/ADIIS
   @RHF iter   3:  -152.11322220713546   -5.91113e-02   1.77063e-04 DIIS/ADIIS
   @RHF iter   4:  -152.11414746214191   -9.25255e-04   4.54415e-05 DIIS
   @RHF iter   5:  -152.11421204985137   -6.45877e-05   1.50470e-05 DIIS
   @RHF iter   6:  -152.11421898089409   -6.93104e-06   6.73101e-06 DIIS
   @RHF iter   7:  -152.11422004455162   -1.06366e-06   1.38107e-06 DIIS
   @RHF iter   8:  -152.11422013768461   -9.31330e-08   2.55180e-07 DIIS
   @RHF iter   9:  -152.11422014081785   -3.13324e-09   5.06513e-08 DIIS
   @RHF iter  10:  -152.11422014094154   -1.23691e-10   1.53554e-08 DIIS
   @RHF iter  11:  -152.11422014095234   -1.08002e-11   2.71902e-09 DIIS
   @RHF iter  12:  -152.11422014095248   -1.42109e-13   7.24462e-10 DIIS
   @RHF iter  13:  -152.11422014095237    1.13687e-13   2.35796e-10 DIIS
   @RHF iter  14:  -152.11422014095257   -1.98952e-13   7.02561e-11 DIIS
  Energy and wave function converged.


  ==> Post-Iterations <==

    Orbital Energies [Eh]
    ---------------------

    Doubly Occupied:                                                      

       1A    -20.594246     2A    -20.555088     3A     -1.374815  
       4A     -1.322090     5A     -0.737203     6A     -0.690848  
       7A     -0.608478     8A     -0.573372     9A     -0.525752  
      10A     -0.491722  

    Virtual:                                                              

      11A      0.019107    12A      0.042832    13A      0.048695  
      14A      0.067615    15A      0.120753    16A      0.151034  
      17A      0.166456    18A      0.168673    19A      0.170676  
      20A      0.184676    21A      0.204001    22A      0.219113  
      23A      0.225087    24A      0.234214    25A      0.260723  
      26A      0.276813    27A      0.293275    28A      0.297366  
      29A      0.356734    30A      0.359568    31A      0.380885  
      32A      0.400840    33A      0.430805    34A      0.431865  
      35A      0.447984    36A      0.450186    37A      0.474601  
      38A      0.562509    39A      0.575993    40A      0.599790  
      41A      0.626298    42A      0.671857    43A      0.706649  
      44A      0.723790    45A      0.739534    46A      0.750449  
      47A      0.780687    48A      0.804712    49A      0.810522  
      50A      0.840043    51A      0.878210    52A      0.901492  
      53A      0.906814    54A      0.917426    55A      0.936915  
      56A      0.948562    57A      0.962485    58A      0.988207  
      59A      1.009122    60A      1.018144    61A      1.025937  
      62A      1.030954    63A      1.047310    64A      1.059020  
      65A      1.088357    66A      1.092084    67A      1.105194  
      68A      1.166704    69A      1.186787    70A      1.216672  
      71A      1.236648    72A      1.249709    73A      1.284746  
      74A      1.318368    75A      1.342082    76A      1.389724  
      77A      1.465137    78A      1.495993    79A      1.541358  
      80A      1.548742    81A      1.593870    82A      1.652351  
      83A      1.665214    84A      1.692534    85A      1.802339  
      86A      1.838217    87A      1.854733    88A      1.992591  
      89A      2.010144    90A      2.072737    91A      2.184784  
      92A      2.211047    93A      2.290300    94A      2.353660  
      95A      2.363946    96A      2.389048    97A      2.400910  
      98A      2.444918    99A      2.461340   100A      2.481380  
     101A      2.506168   102A      2.544064   103A      2.555597  
     104A      2.612018   105A      2.632319   106A      2.680221  
     107A      2.728209   108A      2.737052   109A      2.774061  
     110A      2.798216   111A      2.817519   112A      2.843212  
     113A      2.869673   114A      2.924223   115A      2.977051  
     116A      3.027887   117A      3.685389   118A      3.774669  
     119A      3.799033   120A      3.935955   121A      4.035505  
     122A      4.046367   123A      4.172187   124A      4.177370  
     125A      4.210674   126A      4.216682   127A      4.241162  
     128A      4.305322   129A      4.325195   130A      4.362567  
     131A      4.394587   132A      4.415989   133A      4.439384  
     134A      4.475215   135A      4.497530   136A      4.509724  
     137A      4.580868   138A      4.680296   139A      4.752030  
     140A      4.818520   141A      4.838050   142A      4.891118  
     143A      5.080766   144A      5.126815   145A      5.153617  
     146A      5.189509   147A      5.253795   148A      5.283277  
     149A      5.330172   150A      5.351481   151A      5.455070  
     152A      5.558389   153A      5.684801   154A      5.786750  
     155A      6.161539   156A      6.221303   157A      6.538984  
     158A      6.584868   159A      6.730724   160A      6.782704  
     161A      6.875837   162A      6.934240   163A      7.125480  
     164A      7.156043   165A      7.238058   166A      7.270736  
     167A      7.275370   168A      7.297338   169A      7.316962  
     170A      7.328860   171A      7.360705   172A      7.364723  
     173A      7.437291   174A      7.446902   175A      7.590736  
     176A      7.714710   177A      7.860868   178A      7.909860  
     179A      7.923613   180A      8.023732   181A      8.689277  
     182A      8.785921   183A     15.398441   184A     16.001659  

    Final Occupation by Irrep:
              A 
    DOCC [    10 ]
    NA   [    10 ]
    NB   [    10 ]

  @RHF Final Energy:  -152.11422014095257

   => Energetics <=

    Nuclear Repulsion Energy =             36.2745176890995964
    One-Electron Energy =                -281.8302496185996802
    Two-Electron Energy =                  93.4415117885475297
    Total Energy =                       -152.1142201409525683

Computation Completed


Properties will be evaluated at   0.000000,   0.000000,   0.000000 [a0]

Properties computed using the SCF density matrix


 Multipole Moments:

 ------------------------------------------------------------------------------------
     Multipole            Electronic (a.u.)      Nuclear  (a.u.)        Total (a.u.)
 ------------------------------------------------------------------------------------

 L = 1.  Multiply by 2.5417464519 to convert [e a0] to [Debye]
 Dipole X            :        -12.0729610           10.7354949           -1.3374661
 Dipole Y            :        -83.8686958           83.9921472            0.1234515
 Dipole Z            :         56.7751569          -57.2643149           -0.4891581
 Magnitude           :                                                    1.4294515

 ------------------------------------------------------------------------------------

*** tstop() called on d-19-15-2 at Tue Sep 19 14:06:57 2023
Module time:
	user time   =      18.49 seconds =       0.31 minutes
	system time =       0.44 seconds =       0.01 minutes
	total time  =         19 seconds =       0.32 minutes
Total time:
	user time   =  104231.64 seconds =    1737.19 minutes
	system time =   53673.61 seconds =     894.56 minutes
	total time  =     177513 seconds =    2958.55 minutes
 MINTS: Wrapper to libmints.
   by Justin Turney

   Calculation information:
      Number of threads:                 1
      Number of atoms:                   6
      Number of AO shells:              64
      Number of SO shells:              64
      Number of primitives:            104
      Number of atomic orbitals:       210
      Number of basis functions:       184

      Number of irreps:                  1
      Integral cutoff                 1.00e-12
      Number of functions per irrep: [ 184 ]

 OEINTS: Overlap, kinetic, potential, dipole, and quadrupole integrals
         stored in file 35.

      Computing two-electron integrals...done
      Computed 137240641 non-zero two-electron integrals.
        Stored in file 33.


*** tstart() called on d-19-15-2
*** at Tue Sep 19 14:07:09 2023


	Wfn Parameters:
	--------------------
	Wavefunction         = CCSD_T
	Number of irreps     = 1
	Number of MOs        = 184
	Number of active MOs = 184
	AO-Basis             = NONE
	Semicanonical        = false
	Reference            = RHF
	Print Level          = 1

	IRREP	# MOs	# FZDC	# DOCC	# SOCC	# VIRT	# FZVR
	-----	-----	------	------	------	------	------
	 A	   184	    0	    10	    0	    174	    0
	Transforming integrals...
	IWL integrals will be deleted.
	(OO|OO)...
	Presorting SO-basis two-electron integrals.
	Sorting File: SO Ints (nn|nn) nbuckets = 1
	Constructing frozen core operators
	Starting first half-transformation.
	Sorting half-transformed integrals.
	First half integral transformation complete.
	Starting second half-transformation.
	Two-electron integral transformation complete.
	(OO|OV)...
	Starting second half-transformation.
	Two-electron integral transformation complete.
	(OO|VV)...
	Starting second half-transformation.
	Two-electron integral transformation complete.
	(OV|OO)...
	Starting first half-transformation.
	Sorting half-transformed integrals.
	First half integral transformation complete.
	Starting second half-transformation.
	Two-electron integral transformation complete.
	(OV|OV)...
	Starting second half-transformation.
	Two-electron integral transformation complete.
	(OV|VV)...
	Starting second half-transformation.
	Two-electron integral transformation complete.
	(VV|OO)...
	Starting first half-transformation.
	Sorting half-transformed integrals.
	First half integral transformation complete.
	Starting second half-transformation.
	Two-electron integral transformation complete.
	(VV|OV)...
	Starting second half-transformation.
	Two-electron integral transformation complete.
	(VV|VV)...
	Starting second half-transformation.
	Two-electron integral transformation complete.
	Frozen core energy     =      0.00000000000000

	Size of irrep 0 of <ab|cd> integrals:    916.636 (MW) /   7333.089 (MB)
	Total:                                   916.636 (MW) /   7333.089 (MB)

	Size of irrep 0 of <ia|bc> integrals:     52.680 (MW) /    421.442 (MB)
	Total:                                    52.680 (MW) /    421.442 (MB)

	Size of irrep 0 of tijab amplitudes:       3.028 (MW) /     24.221 (MB)
	Total:                                     3.028 (MW) /     24.221 (MB)

	Nuclear Rep. energy          =     36.27451768909960
	SCF energy                   =   -152.11422014095257
	One-electron energy          =   -281.83024958818356
	Two-electron energy          =     93.44151175813165
	Reference energy             =   -152.11422014095234

*** tstop() called on d-19-15-2 at Tue Sep 19 14:08:58 2023
Module time:
	user time   =      60.47 seconds =       1.01 minutes
	system time =      45.92 seconds =       0.77 minutes
	total time  =        109 seconds =       1.82 minutes
Total time:
	user time   =  104300.76 seconds =    1738.35 minutes
	system time =   53722.66 seconds =     895.38 minutes
	total time  =     177634 seconds =    2960.57 minutes
            **************************
            *                        *
            *        CCENERGY        *
            *                        *
            **************************

    Nuclear Rep. energy (wfn)     =   36.274517689099596
    SCF energy          (wfn)     = -152.114220140952568
    Reference energy    (file100) = -152.114220140952341

    Input parameters:
    -----------------
    Wave function   =     CCSD_T
    Reference wfn   =     RHF
    Brueckner       =     No
    Memory (Mbytes) =     20000.0
    Maxiter         =     50
    R_Convergence   =     1.0e-07
    E_Convergence   =     1.0e-10
    Restart         =     Yes
    DIIS            =     Yes
    AO Basis        =     NONE
    ABCD            =     NEW
    Cache Level     =     2
    Cache Type      =     LOW
    Print Level     =     1
    Num. of threads =     1
    # Amps to Print =     10
    Print MP2 Amps? =     No
    Analyze T2 Amps =     No
    Print Pair Ener =     No
    Local CC        =     No
    SCS-MP2         =     False
    SCSN-MP2        =     False
    SCS-CCSD        =     False

MP2 correlation energy -0.5736661503599251
                Solving CC Amplitude Equations
                ------------------------------
  Iter             Energy              RMS        T1Diag      D1Diag    New D1Diag    D2Diag
  ----     ---------------------    ---------   ----------  ----------  ----------   --------
     0        -0.573666150359925    0.000e+00    0.000000    0.000000    0.000000    0.121438
     1        -0.569138471700763    5.207e-02    0.008027    0.019228    0.019228    0.123244
     2        -0.579662305874631    1.844e-02    0.007879    0.018851    0.018851    0.128076
     3        -0.582496224655228    7.396e-03    0.009209    0.022691    0.022691    0.130377
     4        -0.582212200305554    1.625e-03    0.009393    0.023226    0.023226    0.130581
     5        -0.582231622195098    6.645e-04    0.009499    0.023634    0.023634    0.130644
     6        -0.582249208079810    1.911e-04    0.009529    0.023762    0.023762    0.130642
     7        -0.582244782412478    7.672e-05    0.009536    0.023805    0.023805    0.130631
     8        -0.582242798267698    2.613e-05    0.009538    0.023820    0.023820    0.130628
     9        -0.582243364814817    1.138e-05    0.009539    0.023826    0.023826    0.130628
    10        -0.582242653407916    5.291e-06    0.009539    0.023829    0.023829    0.130628
    11        -0.582242721823579    2.047e-06    0.009539    0.023829    0.023829    0.130628
    12        -0.582242689815625    8.777e-07    0.009539    0.023829    0.023829    0.130628
    13        -0.582242676029352    2.789e-07    0.009539    0.023829    0.023829    0.130628
    14        -0.582242676015707    9.674e-08    0.009539    0.023829    0.023829    0.130628
    15        -0.582242675864567    4.294e-08    0.009539    0.023829    0.023829    0.130628

    Iterations converged.


    Largest TIA Amplitudes:
              9   7        -0.0117031482
              9   6        -0.0081028971
              6   4        -0.0075191293
              7   4         0.0074534462
              9  23         0.0071335458
              9  17        -0.0063668334
              7   5         0.0063249889
              8  13        -0.0058009043
              7  19         0.0055800052
              8  15         0.0055623199

    Largest TIjAb Amplitudes:
      4   4  25  25        -0.0147224793
      5   5  26  26        -0.0137609567
      4   4  25  50         0.0103959098
      4   4  50  25         0.0103959098
      5   5  24  24        -0.0092971664
      4   4  50  50        -0.0091328307
      4   4   8  25        -0.0091295245
      4   4  25   8        -0.0091295245
      9   9  33  33        -0.0090445540
      5   5  24  26        -0.0087595887

    SCF energy       (wfn)                    = -152.114220140952568
    Reference energy (file100)                = -152.114220140952341

    Opposite-spin MP2 correlation energy      =   -0.434817430231618
    Same-spin MP2 correlation energy          =   -0.138848720128307
    Singles MP2 correlation energy            =   -0.000000000000000
    MP2 correlation energy                    =   -0.573666150359925
      * MP2 total energy                      = -152.687886291312253

    Opposite-spin CCSD correlation energy     =   -0.458624831107350
    Same-spin CCSD correlation energy         =   -0.123617844757217
    Singles CCSD correlation energy           =    0.000000000000000
    CCSD correlation energy                   =   -0.582242675864567
      * CCSD total energy                     = -152.696462816816904

            **************************
            *                        *
            *        CCTRIPLES       *
            *                        *
            **************************


    Wave function   =    CCSD_T
    Reference wfn   =      RHF

    Nuclear Rep. energy (wfn)                =   36.274517689099596
    SCF energy          (wfn)                = -152.114220140952568
    Reference energy    (file100)            = -152.114220140952341
    CCSD energy         (file100)            =   -0.582242675864567
    Total CCSD energy   (file100)            = -152.696462816816904

    Number of ijk index combinations:              220
    Memory available in words               :      2500000000
    Approx. words needed per explicit thread:        21072096
    Number of threads for explicit ijk threading:    1

    MKL num_threads set to 1 for explicit threading.

    (T) energy                                =   -0.018528466167876
      * CCSD(T) total energy                  = -152.714991282984784


    Psi4 stopped on: Tuesday, 19 September 2023 02:15PM
    Psi4 wall time for execution: 0:08:35.25


  //>>>>>>>>>>>>>>>>>>>>>>>>>>>>>>>>>>>//
  //          ManyBody Results         //
  //<<<<<<<<<<<<<<<<<<<<<<<<<<<<<<<<<<<//


   ==> N-Body: Counterpoise Corrected (CP) energies <==

        n-Body     Total Energy            Interaction Energy                          N-body Contribution to Interaction Energy
                   [Eh]                    [Eh]                  [kcal/mol]            [Eh]                  [kcal/mol]
             1  N/A                         0.000000000000        0.000000000000        0.000000000000        0.000000000000
  FULL/RTN   2  N/A                        -0.000845282096       -0.530422523331       -0.000845282096       -0.530422523331


