
  Memory set to  18.626 GiB by Python driver.

Scratch directory: /home/gridsan/kfisher/scratch/

  //>>>>>>>>>>>>>>>>>>>>>>>>>>>>>>>>>>>>>>>>//
  // ManyBody Setup: N-Body Levels [1, 2, 3]//
  //<<<<<<<<<<<<<<<<<<<<<<<<<<<<<<<<<<<<<<<<//

        Number of 1-body computations:     3
        Number of 2-body computations:     3
        Number of 3-body computations:     1

    -----------------------------------------------------------------------
          Psi4: An Open-Source Ab Initio Electronic Structure Package
                               Psi4 1.7 release

                         Git: Rev {HEAD} 6ce35a5 


    D. G. A. Smith, L. A. Burns, A. C. Simmonett, R. M. Parrish,
    M. C. Schieber, R. Galvelis, P. Kraus, H. Kruse, R. Di Remigio,
    A. Alenaizan, A. M. James, S. Lehtola, J. P. Misiewicz, M. Scheurer,
    R. A. Shaw, J. B. Schriber, Y. Xie, Z. L. Glick, D. A. Sirianni,
    J. S. O'Brien, J. M. Waldrop, A. Kumar, E. G. Hohenstein,
    B. P. Pritchard, B. R. Brooks, H. F. Schaefer III, A. Yu. Sokolov,
    K. Patkowski, A. E. DePrince III, U. Bozkaya, R. A. King,
    F. A. Evangelista, J. M. Turney, T. D. Crawford, C. D. Sherrill,
    J. Chem. Phys. 152(18) 184108 (2020). https://doi.org/10.1063/5.0006002

                            Additional Code Authors
    E. T. Seidl, C. L. Janssen, E. F. Valeev, M. L. Leininger,
    J. F. Gonthier, R. M. Richard, H. R. McAlexander, M. Saitow, X. Wang,
    P. Verma, M. H. Lechner, A. Jiang, S. Behnle, A. G. Heide,
    M. F. Herbst, and D. L. Poole

             Previous Authors, Complete List of Code Contributors,
                       and Citations for Specific Modules
    https://github.com/psi4/psi4/blob/master/codemeta.json
    https://github.com/psi4/psi4/graphs/contributors
    http://psicode.org/psi4manual/master/introduction.html#citing-psifour

    -----------------------------------------------------------------------


    Psi4 started on: Sunday, 17 September 2023 12:48PM

    Process ID: 258105
    Host:       d-19-15-2
    PSIDATADIR: /home/gridsan/kfisher/.conda/envs/p4env/share/psi4
    Memory:     18.6 GiB
    Threads:    1
    
  ==> Input QCSchema <==

--------------------------------------------------------------------------
{'driver': 'energy',
 'extras': {'psiapi': True, 'wfn_qcvars_only': True},
 'id': None,
 'keywords': {'D_CONVERGENCE': 1e-10, 'E_CONVERGENCE': 1e-10, 'function_kwargs': {'dft_functional': 'scan-d3zero2b'}},
 'model': {'basis': 'aug-cc-pvtz', 'method': 'scf'},
 'molecule': {'atom_labels': ['', '', '', '', '', '', '', '', ''],
              'atomic_numbers': [1, 1, 8, 1, 1, 8, 1, 1, 8],
              'fix_com': True,
              'fix_orientation': True,
              'fix_symmetry': 'c1',
              'fragment_charges': [0.0, 0.0, 0.0],
              'fragment_multiplicities': [1, 1, 1],
              'fragments': [[0, 1, 2], [3, 4, 5], [6, 7, 8]],
              'geometry': [4.601144589951697, -0.40663134326506045, -2.508494419703579, 7.305579647137981,
                           -0.98300612632465, -1.786005899240022, 5.731917850656521, -1.8018394609109631,
                           -2.208342283902231, 2.683563939199143, -4.274727188527134, -3.5375706516722962,
                           -0.11444670854839101, -3.992038295310061, -2.6573496016950084, 0.9750694655703398,
                           -4.780435152899174, -3.9325709196077763, 0.15146296625003902, -11.365354041579403,
                           -3.14658282032174, -0.06978503468288823, -8.596905154400119, -2.7013614365404885,
                           -0.47558735509671035, -10.209960861994276, -1.9014999884934483],
              'mass_numbers': [1, 1, 16, 1, 1, 16, 1, 1, 16],
              'masses': [1.00782503223, 1.00782503223, 15.99491461957, 1.00782503223, 1.00782503223, 15.99491461957,
                         1.00782503223, 1.00782503223, 15.99491461957],
              'molecular_charge': 0.0,
              'molecular_multiplicity': 1,
              'name': 'H6O3',
              'provenance': {'creator': 'QCElemental',
                             'routine': 'qcelemental.molparse.from_string',
                             'version': 'v0.25.1'},
              'real': [True, True, True, False, False, False, False, False, False],
              'schema_name': 'qcschema_molecule',
              'schema_version': 2,
              'symbols': ['H', 'H', 'O', 'H', 'H', 'O', 'H', 'H', 'O'],
              'validated': True},
 'protocols': {'stdout': True},
 'provenance': {'creator': 'QCElemental', 'routine': 'qcelemental.models.results', 'version': 'v0.25.1'},
 'schema_name': 'qcschema_input',
 'schema_version': 1}
--------------------------------------------------------------------------

Scratch directory: /home/gridsan/kfisher/scratch/

*** tstart() called on d-19-15-2
*** at Sun Sep 17 12:48:24 2023

   => Loading Basis Set <=

    Name: AUG-CC-PVTZ
    Role: ORBITAL
    Keyword: BASIS
    atoms 1-2, 4-5, 7-8 entry H          line    40 file /home/gridsan/kfisher/.conda/envs/p4env/share/psi4/basis/aug-cc-pvtz.gbs 
    atoms 3, 6, 9       entry O          line   331 file /home/gridsan/kfisher/.conda/envs/p4env/share/psi4/basis/aug-cc-pvtz.gbs 

   => SCAN-D3: Empirical Dispersion <=

    Grimme's -D3 (zero-damping) Dispersion Correction
    Grimme S.; Antony J.; Ehrlich S.; Krieg H. (2010), J. Chem. Phys., 132: 154104
    Parametrisation from:    J.G. Brandenburg, J. E. Bates, J. Sun, J.P. Perdew, Phys. Rev. B 94, 115144, 2016

        s6 =       1.000000
        s8 =       0.000000
       sr6 =       1.324000
    alpha6 =      14.000000
       sr8 =       1.000000


         ---------------------------------------------------------
                                   SCF
               by Justin Turney, Rob Parrish, Andy Simmonett
                          and Daniel G. A. Smith
                              RKS Reference
                        1 Threads,  19073 MiB Core
         ---------------------------------------------------------

  ==> Geometry <==

    Molecular point group: c1
    Full point group: C1

    Geometry (in Bohr), charge = 0, multiplicity = 1:

       Center              X                  Y                   Z               Mass       
    ------------   -----------------  -----------------  -----------------  -----------------
         H            4.601144589952    -0.406631343265    -2.508494419704     1.007825032230
         H            7.305579647138    -0.983006126325    -1.786005899240     1.007825032230
         O            5.731917850657    -1.801839460911    -2.208342283902    15.994914619570
      Gh(H)           2.683563939199    -4.274727188527    -3.537570651672     1.007825032230
      Gh(H)          -0.114446708548    -3.992038295310    -2.657349601695     1.007825032230
      Gh(O)           0.975069465570    -4.780435152899    -3.932570919608    15.994914619570
      Gh(H)           0.151462966250   -11.365354041579    -3.146582820322     1.007825032230
      Gh(H)          -0.069785034683    -8.596905154400    -2.701361436540     1.007825032230
      Gh(O)          -0.475587355097   -10.209960861994    -1.901499988493    15.994914619570

  Running in c1 symmetry.

  Rotational constants: A =      0.08010  B =      0.02222  C =      0.01823 [cm^-1]
  Rotational constants: A =   2401.26552  B =    666.24782  C =    546.39975 [MHz]
  Nuclear repulsion =    9.130638043424117

  Charge       = 0
  Multiplicity = 1
  Electrons    = 10
  Nalpha       = 5
  Nbeta        = 5

  ==> Algorithm <==

  SCF Algorithm Type is DF.
  DIIS enabled.
  MOM disabled.
  Fractional occupation disabled.
  Guess Type is SAD.
  Energy threshold   = 1.00e-10
  Density threshold  = 1.00e-10
  Integral threshold = 1.00e-12

  ==> Primary Basis <==

  Basis Set: AUG-CC-PVTZ
    Blend: AUG-CC-PVTZ
    Number of shells: 96
    Number of basis functions: 276
    Number of Cartesian functions: 315
    Spherical Harmonics?: true
    Max angular momentum: 3

  ==> DFT Potential <==

   => Composite Functional: SCAN-D3ZERO2B <= 

    SCAN Meta-GGA XC Functional
(10.1103/PhysRevLett.115.036402)
    J. Sun, A. Ruzsinszky, J. P. Perdew  Phys. Rev. Lett. 115, 036402, 2015


    Deriv               =              1
    GGA                 =           TRUE
    Meta                =           TRUE

    Exchange Hybrid     =          FALSE
    MP2 Hybrid          =          FALSE

   => Exchange Functionals <=

    1.0000   XC_MGGA_X_SCAN

   => Correlation Functionals <=

    1.0000   XC_MGGA_C_SCAN

   => LibXC Density Thresholds  <==

    XC_MGGA_C_SCAN:  1.00E-15 
    XC_MGGA_X_SCAN:  1.00E-15 

   => Molecular Quadrature <=

    Radial Scheme          =       TREUTLER
    Pruning Scheme         =           NONE
    Nuclear Scheme         =       TREUTLER

    Blocking Scheme        =         OCTREE
    BS radius alpha        =              1
    Pruning alpha          =              1
    Radial Points          =             75
    Spherical Points       =            302
    Total Points           =         198308
    Total Blocks           =           1502
    Max Points             =            256
    Max Functions          =            254
    Weights Tolerance      =       1.00E-15

   => Loading Basis Set <=

    Name: (AUG-CC-PVTZ AUX)
    Role: JKFIT
    Keyword: DF_BASIS_SCF
    atoms 1-2, 4-5, 7-8 entry H          line    70 file /home/gridsan/kfisher/.conda/envs/p4env/share/psi4/basis/aug-cc-pvtz-jkfit.gbs 
    atoms 3, 6, 9       entry O          line   286 file /home/gridsan/kfisher/.conda/envs/p4env/share/psi4/basis/aug-cc-pvtz-jkfit.gbs 

  ==> Integral Setup <==

  DFHelper Memory: AOs need 0.320 GiB; user supplied 11.160 GiB. Using in-core AOs.

  ==> MemDFJK: Density-Fitted J/K Matrices <==

    J tasked:                   Yes
    K tasked:                    No
    wK tasked:                   No
    OpenMP threads:               1
    Memory [MiB]:             11428
    Algorithm:                 Core
    Schwarz Cutoff:           1E-12
    Mask sparsity (%):       9.6487
    Fitting Condition:        1E-10

   => Auxiliary Basis Set <=

  Basis Set: (AUG-CC-PVTZ AUX)
    Blend: AUG-CC-PVTZ-JKFIT
    Number of shells: 174
    Number of basis functions: 588
    Number of Cartesian functions: 723
    Spherical Harmonics?: true
    Max angular momentum: 4

  Cached 100.0% of DFT collocation blocks in 2.810 [GiB].

  Minimum eigenvalue in the overlap matrix is 1.7737457904E-04.
  Reciprocal condition number of the overlap matrix is 1.8322782708E-05.
    Using symmetric orthogonalization.

  ==> Pre-Iterations <==

  SCF Guess: Superposition of Atomic Densities via on-the-fly atomic UHF (no occupation information).

   -------------------------
    Irrep   Nso     Nmo    
   -------------------------
     A        276     276 
   -------------------------
    Total     276     276
   -------------------------

  ==> Iterations <==

                           Total Energy        Delta E     RMS |[F,P]|

   @DF-RKS iter SAD:   -76.06271892205302   -7.60627e+01   0.00000e+00 
   @DF-RKS iter   1:   -76.24395306688891   -1.81234e-01   2.64991e-03 DIIS/ADIIS
   @DF-RKS iter   2:   -75.68613122124300    5.57822e-01   4.95655e-03 DIIS/ADIIS
   @DF-RKS iter   3:   -76.42950998275110   -7.43379e-01   2.26024e-04 DIIS/ADIIS
   @DF-RKS iter   4:   -76.43128002304692   -1.77004e-03   2.84726e-05 DIIS
   @DF-RKS iter   5:   -76.43129978508902   -1.97620e-05   7.85258e-06 DIIS
   @DF-RKS iter   6:   -76.43130137862265   -1.59353e-06   4.12610e-07 DIIS
   @DF-RKS iter   7:   -76.43130138287053   -4.24788e-09   8.56934e-08 DIIS
   @DF-RKS iter   8:   -76.43130138309033   -2.19799e-10   4.35011e-09 DIIS
   @DF-RKS iter   9:   -76.43130138309091   -5.82645e-13   9.49970e-10 DIIS
   @DF-RKS iter  10:   -76.43130138309097   -5.68434e-14   2.52490e-10 DIIS
   @DF-RKS iter  11:   -76.43130138309097    0.00000e+00   7.55770e-12 DIIS
  Energy and wave function converged.


  ==> Post-Iterations <==

   Electrons on quadrature grid:
      Ntotal   =   10.0000003640 ; deviation = 3.640e-07 

    Orbital Energies [Eh]
    ---------------------

    Doubly Occupied:                                                      

       1A    -18.969125     2A     -0.981018     3A     -0.496593  
       4A     -0.359916     5A     -0.279682  

    Virtual:                                                              

       6A     -0.010576     7A      0.030305     8A      0.034820  
       9A      0.053443    10A      0.057903    11A      0.077894  
      12A      0.087167    13A      0.102426    14A      0.122258  
      15A      0.124710    16A      0.135177    17A      0.150853  
      18A      0.154103    19A      0.158538    20A      0.171025  
      21A      0.176388    22A      0.197598    23A      0.206700  
      24A      0.219708    25A      0.240377    26A      0.250872  
      27A      0.256792    28A      0.268160    29A      0.281767  
      30A      0.298745    31A      0.305716    32A      0.318996  
      33A      0.331605    34A      0.337401    35A      0.343588  
      36A      0.361122    37A      0.363557    38A      0.374684  
      39A      0.381237    40A      0.391137    41A      0.408660  
      42A      0.417941    43A      0.431627    44A      0.453895  
      45A      0.464325    46A      0.512792    47A      0.528849  
      48A      0.559676    49A      0.591423    50A      0.621415  
      51A      0.636505    52A      0.644754    53A      0.663920  
      54A      0.692638    55A      0.712203    56A      0.737791  
      57A      0.758055    58A      0.768697    59A      0.775541  
      60A      0.791141    61A      0.807503    62A      0.810493  
      63A      0.827734    64A      0.829289    65A      0.837131  
      66A      0.844709    67A      0.851632    68A      0.862443  
      69A      0.868611    70A      0.876130    71A      0.880050  
      72A      0.890999    73A      0.913135    74A      0.916064  
      75A      0.928857    76A      0.946398    77A      0.954643  
      78A      0.958788    79A      0.977829    80A      0.988497  
      81A      0.998347    82A      1.006230    83A      1.014104  
      84A      1.020706    85A      1.035495    86A      1.052791  
      87A      1.080618    88A      1.098163    89A      1.111611  
      90A      1.130150    91A      1.143723    92A      1.162191  
      93A      1.199191    94A      1.212427    95A      1.221909  
      96A      1.234940    97A      1.260962    98A      1.267325  
      99A      1.309853   100A      1.368752   101A      1.377703  
     102A      1.385538   103A      1.415893   104A      1.437209  
     105A      1.466714   106A      1.471065   107A      1.532887  
     108A      1.573067   109A      1.588371   110A      1.613028  
     111A      1.651445   112A      1.691813   113A      1.711990  
     114A      1.727753   115A      1.746532   116A      1.781417  
     117A      1.802088   118A      1.809747   119A      1.837335  
     120A      1.849632   121A      1.856798   122A      1.878114  
     123A      1.903080   124A      1.938608   125A      2.021783  
     126A      2.077515   127A      2.086760   128A      2.125311  
     129A      2.185942   130A      2.232974   131A      2.254327  
     132A      2.296634   133A      2.339139   134A      2.346104  
     135A      2.435607   136A      2.454255   137A      2.461992  
     138A      2.488162   139A      2.518566   140A      2.539813  
     141A      2.549304   142A      2.566436   143A      2.580332  
     144A      2.593383   145A      2.603416   146A      2.637819  
     147A      2.649819   148A      2.671418   149A      2.684370  
     150A      2.722764   151A      2.752623   152A      2.788777  
     153A      2.822622   154A      2.843531   155A      2.878503  
     156A      2.984154   157A      3.030499   158A      3.053866  
     159A      3.171094   160A      3.202822   161A      3.215142  
     162A      3.265011   163A      3.295290   164A      3.370999  
     165A      3.387694   166A      3.414810   167A      3.470104  
     168A      3.504240   169A      3.542643   170A      3.585846  
     171A      3.671668   172A      3.699266   173A      3.773763  
     174A      3.842938   175A      3.874449   176A      3.937541  
     177A      4.078439   178A      4.186997   179A      4.238426  
     180A      4.272280   181A      4.323766   182A      4.391061  
     183A      4.413327   184A      4.425492   185A      4.456062  
     186A      4.457387   187A      4.464185   188A      4.517422  
     189A      4.563363   190A      4.580256   191A      4.604148  
     192A      4.635541   193A      4.664184   194A      4.700003  
     195A      4.747962   196A      4.843249   197A      4.876704  
     198A      4.879452   199A      4.914588   200A      4.920304  
     201A      4.983019   202A      5.046050   203A      5.064775  
     204A      5.087460   205A      5.168517   206A      5.207329  
     207A      5.276742   208A      5.306683   209A      5.351797  
     210A      5.365469   211A      5.525615   212A      5.565272  
     213A      5.582968   214A      5.606632   215A      5.608485  
     216A      5.652312   217A      5.743516   218A      5.871471  
     219A      5.917502   220A      5.966547   221A      6.130064  
     222A      6.273379   223A      6.360737   224A      6.399980  
     225A      6.438393   226A      6.461195   227A      6.625010  
     228A      6.675498   229A      6.721147   230A      6.846092  
     231A      6.929702   232A      6.986324   233A      7.035702  
     234A      7.053047   235A      7.063512   236A      7.087236  
     237A      7.112093   238A      7.391602   239A      7.591735  
     240A      7.665622   241A      7.688477   242A      7.761471  
     243A      7.872281   244A      7.895626   245A      8.025402  
     246A      8.125140   247A      8.148488   248A      8.248450  
     249A      8.284264   250A      8.303695   251A      8.581518  
     252A      8.758833   253A      8.804119   254A      8.907600  
     255A      8.946162   256A      9.648310   257A      9.813942  
     258A      9.867068   259A      9.958261   260A     10.054938  
     261A     10.129429   262A     10.313991   263A     10.332911  
     264A     11.146934   265A     11.240302   266A     11.685391  
     267A     11.872599   268A     12.050503   269A     12.262917  
     270A     13.574773   271A     13.607456   272A     13.958872  
     273A     13.975133   274A     15.166199   275A     65.333746  
     276A     66.527383  

    Final Occupation by Irrep:
              A 
    DOCC [     5 ]
    NA   [     5 ]
    NB   [     5 ]

  @DF-RKS Final Energy:   -76.43130138309097

   => Energetics <=

    Nuclear Repulsion Energy =              9.1306380434241170
    One-Electron Energy =                -122.9384135821728421
    Two-Electron Energy =                  46.6705732780791465
    DFT Exchange-Correlation Energy =      -9.2940990024213832
    Empirical Dispersion Energy =          -0.0000001200000000
    VV10 Nonlocal Energy =                  0.0000000000000000
    Total Energy =                        -76.4313013830909682

Computation Completed


Properties will be evaluated at   0.000000,   0.000000,   0.000000 [a0]

Properties computed using the SCF density matrix


 Multipole Moments:

 ------------------------------------------------------------------------------------
     Multipole            Electronic (a.u.)      Nuclear  (a.u.)        Total (a.u.)
 ------------------------------------------------------------------------------------

 L = 1.  Multiply by 2.5417464519 to convert [e a0] to [Debye]
 Dipole X            :        -57.6196045           57.7620670            0.1424626
 Dipole Y            :         16.5191671          -15.8043532            0.7148140
 Dipole Z            :         22.0007301          -21.9612386            0.0394916
 Magnitude           :                                                    0.7299412

 ------------------------------------------------------------------------------------

*** tstop() called on d-19-15-2 at Sun Sep 17 12:49:20 2023
Module time:
	user time   =      50.78 seconds =       0.85 minutes
	system time =       1.75 seconds =       0.03 minutes
	total time  =         56 seconds =       0.93 minutes
Total time:
	user time   =      50.78 seconds =       0.85 minutes
	system time =       1.75 seconds =       0.03 minutes
	total time  =         56 seconds =       0.93 minutes

    Psi4 stopped on: Sunday, 17 September 2023 12:49PM
    Psi4 wall time for execution: 0:00:56.25


    -----------------------------------------------------------------------
          Psi4: An Open-Source Ab Initio Electronic Structure Package
                               Psi4 1.7 release

                         Git: Rev {HEAD} 6ce35a5 


    D. G. A. Smith, L. A. Burns, A. C. Simmonett, R. M. Parrish,
    M. C. Schieber, R. Galvelis, P. Kraus, H. Kruse, R. Di Remigio,
    A. Alenaizan, A. M. James, S. Lehtola, J. P. Misiewicz, M. Scheurer,
    R. A. Shaw, J. B. Schriber, Y. Xie, Z. L. Glick, D. A. Sirianni,
    J. S. O'Brien, J. M. Waldrop, A. Kumar, E. G. Hohenstein,
    B. P. Pritchard, B. R. Brooks, H. F. Schaefer III, A. Yu. Sokolov,
    K. Patkowski, A. E. DePrince III, U. Bozkaya, R. A. King,
    F. A. Evangelista, J. M. Turney, T. D. Crawford, C. D. Sherrill,
    J. Chem. Phys. 152(18) 184108 (2020). https://doi.org/10.1063/5.0006002

                            Additional Code Authors
    E. T. Seidl, C. L. Janssen, E. F. Valeev, M. L. Leininger,
    J. F. Gonthier, R. M. Richard, H. R. McAlexander, M. Saitow, X. Wang,
    P. Verma, M. H. Lechner, A. Jiang, S. Behnle, A. G. Heide,
    M. F. Herbst, and D. L. Poole

             Previous Authors, Complete List of Code Contributors,
                       and Citations for Specific Modules
    https://github.com/psi4/psi4/blob/master/codemeta.json
    https://github.com/psi4/psi4/graphs/contributors
    http://psicode.org/psi4manual/master/introduction.html#citing-psifour

    -----------------------------------------------------------------------


    Psi4 started on: Sunday, 17 September 2023 12:48PM

    Process ID: 258105
    Host:       d-19-15-2
    PSIDATADIR: /home/gridsan/kfisher/.conda/envs/p4env/share/psi4
    Memory:     18.6 GiB
    Threads:    1
    
  ==> Input QCSchema <==

--------------------------------------------------------------------------
{'driver': 'energy',
 'extras': {'psiapi': True, 'wfn_qcvars_only': True},
 'id': None,
 'keywords': {'D_CONVERGENCE': 1e-10, 'E_CONVERGENCE': 1e-10, 'function_kwargs': {'dft_functional': 'scan-d3zero2b'}},
 'model': {'basis': 'aug-cc-pvtz', 'method': 'scf'},
 'molecule': {'atom_labels': ['', '', '', '', '', '', '', '', ''],
              'atomic_numbers': [1, 1, 8, 1, 1, 8, 1, 1, 8],
              'fix_com': True,
              'fix_orientation': True,
              'fix_symmetry': 'c1',
              'fragment_charges': [0.0, 0.0, 0.0],
              'fragment_multiplicities': [1, 1, 1],
              'fragments': [[0, 1, 2], [3, 4, 5], [6, 7, 8]],
              'geometry': [4.601144589951697, -0.40663134326506045, -2.508494419703579, 7.305579647137981,
                           -0.98300612632465, -1.786005899240022, 5.731917850656521, -1.8018394609109631,
                           -2.208342283902231, 2.683563939199143, -4.274727188527134, -3.5375706516722962,
                           -0.11444670854839101, -3.992038295310061, -2.6573496016950084, 0.9750694655703398,
                           -4.780435152899174, -3.9325709196077763, 0.15146296625003902, -11.365354041579403,
                           -3.14658282032174, -0.06978503468288823, -8.596905154400119, -2.7013614365404885,
                           -0.47558735509671035, -10.209960861994276, -1.9014999884934483],
              'mass_numbers': [1, 1, 16, 1, 1, 16, 1, 1, 16],
              'masses': [1.00782503223, 1.00782503223, 15.99491461957, 1.00782503223, 1.00782503223, 15.99491461957,
                         1.00782503223, 1.00782503223, 15.99491461957],
              'molecular_charge': 0.0,
              'molecular_multiplicity': 1,
              'name': 'H6O3',
              'provenance': {'creator': 'QCElemental',
                             'routine': 'qcelemental.molparse.from_string',
                             'version': 'v0.25.1'},
              'real': [False, False, False, True, True, True, False, False, False],
              'schema_name': 'qcschema_molecule',
              'schema_version': 2,
              'symbols': ['H', 'H', 'O', 'H', 'H', 'O', 'H', 'H', 'O'],
              'validated': True},
 'protocols': {'stdout': True},
 'provenance': {'creator': 'QCElemental', 'routine': 'qcelemental.models.results', 'version': 'v0.25.1'},
 'schema_name': 'qcschema_input',
 'schema_version': 1}
--------------------------------------------------------------------------

Scratch directory: /home/gridsan/kfisher/scratch/

*** tstart() called on d-19-15-2
*** at Sun Sep 17 12:49:20 2023

   => Loading Basis Set <=

    Name: AUG-CC-PVTZ
    Role: ORBITAL
    Keyword: BASIS
    atoms 1-2, 4-5, 7-8 entry H          line    40 file /home/gridsan/kfisher/.conda/envs/p4env/share/psi4/basis/aug-cc-pvtz.gbs 
    atoms 3, 6, 9       entry O          line   331 file /home/gridsan/kfisher/.conda/envs/p4env/share/psi4/basis/aug-cc-pvtz.gbs 

   => SCAN-D3: Empirical Dispersion <=

    Grimme's -D3 (zero-damping) Dispersion Correction
    Grimme S.; Antony J.; Ehrlich S.; Krieg H. (2010), J. Chem. Phys., 132: 154104
    Parametrisation from:    J.G. Brandenburg, J. E. Bates, J. Sun, J.P. Perdew, Phys. Rev. B 94, 115144, 2016

        s6 =       1.000000
        s8 =       0.000000
       sr6 =       1.324000
    alpha6 =      14.000000
       sr8 =       1.000000


         ---------------------------------------------------------
                                   SCF
               by Justin Turney, Rob Parrish, Andy Simmonett
                          and Daniel G. A. Smith
                              RKS Reference
                        1 Threads,  19073 MiB Core
         ---------------------------------------------------------

  ==> Geometry <==

    Molecular point group: c1
    Full point group: C1

    Geometry (in Bohr), charge = 0, multiplicity = 1:

       Center              X                  Y                   Z               Mass       
    ------------   -----------------  -----------------  -----------------  -----------------
      Gh(H)           4.601144589952    -0.406631343265    -2.508494419704     1.007825032230
      Gh(H)           7.305579647138    -0.983006126325    -1.786005899240     1.007825032230
      Gh(O)           5.731917850657    -1.801839460911    -2.208342283902    15.994914619570
         H            2.683563939199    -4.274727188527    -3.537570651672     1.007825032230
         H           -0.114446708548    -3.992038295310    -2.657349601695     1.007825032230
         O            0.975069465570    -4.780435152899    -3.932570919608    15.994914619570
      Gh(H)           0.151462966250   -11.365354041579    -3.146582820322     1.007825032230
      Gh(H)          -0.069785034683    -8.596905154400    -2.701361436540     1.007825032230
      Gh(O)          -0.475587355097   -10.209960861994    -1.901499988493    15.994914619570

  Running in c1 symmetry.

  Rotational constants: A =      0.08010  B =      0.02222  C =      0.01823 [cm^-1]
  Rotational constants: A =   2401.26552  B =    666.24782  C =    546.39975 [MHz]
  Nuclear repulsion =    9.039423983856757

  Charge       = 0
  Multiplicity = 1
  Electrons    = 10
  Nalpha       = 5
  Nbeta        = 5

  ==> Algorithm <==

  SCF Algorithm Type is DF.
  DIIS enabled.
  MOM disabled.
  Fractional occupation disabled.
  Guess Type is SAD.
  Energy threshold   = 1.00e-10
  Density threshold  = 1.00e-10
  Integral threshold = 1.00e-12

  ==> Primary Basis <==

  Basis Set: AUG-CC-PVTZ
    Blend: AUG-CC-PVTZ
    Number of shells: 96
    Number of basis functions: 276
    Number of Cartesian functions: 315
    Spherical Harmonics?: true
    Max angular momentum: 3

  ==> DFT Potential <==

   => Composite Functional: SCAN-D3ZERO2B <= 

    SCAN Meta-GGA XC Functional
(10.1103/PhysRevLett.115.036402)
    J. Sun, A. Ruzsinszky, J. P. Perdew  Phys. Rev. Lett. 115, 036402, 2015


    Deriv               =              1
    GGA                 =           TRUE
    Meta                =           TRUE

    Exchange Hybrid     =          FALSE
    MP2 Hybrid          =          FALSE

   => Exchange Functionals <=

    1.0000   XC_MGGA_X_SCAN

   => Correlation Functionals <=

    1.0000   XC_MGGA_C_SCAN

   => LibXC Density Thresholds  <==

    XC_MGGA_C_SCAN:  1.00E-15 
    XC_MGGA_X_SCAN:  1.00E-15 

   => Molecular Quadrature <=

    Radial Scheme          =       TREUTLER
    Pruning Scheme         =           NONE
    Nuclear Scheme         =       TREUTLER

    Blocking Scheme        =         OCTREE
    BS radius alpha        =              1
    Pruning alpha          =              1
    Radial Points          =             75
    Spherical Points       =            302
    Total Points           =         198308
    Total Blocks           =           1502
    Max Points             =            256
    Max Functions          =            254
    Weights Tolerance      =       1.00E-15

   => Loading Basis Set <=

    Name: (AUG-CC-PVTZ AUX)
    Role: JKFIT
    Keyword: DF_BASIS_SCF
    atoms 1-2, 4-5, 7-8 entry H          line    70 file /home/gridsan/kfisher/.conda/envs/p4env/share/psi4/basis/aug-cc-pvtz-jkfit.gbs 
    atoms 3, 6, 9       entry O          line   286 file /home/gridsan/kfisher/.conda/envs/p4env/share/psi4/basis/aug-cc-pvtz-jkfit.gbs 

  ==> Integral Setup <==

  DFHelper Memory: AOs need 0.320 GiB; user supplied 11.160 GiB. Using in-core AOs.

  ==> MemDFJK: Density-Fitted J/K Matrices <==

    J tasked:                   Yes
    K tasked:                    No
    wK tasked:                   No
    OpenMP threads:               1
    Memory [MiB]:             11428
    Algorithm:                 Core
    Schwarz Cutoff:           1E-12
    Mask sparsity (%):       9.6487
    Fitting Condition:        1E-10

   => Auxiliary Basis Set <=

  Basis Set: (AUG-CC-PVTZ AUX)
    Blend: AUG-CC-PVTZ-JKFIT
    Number of shells: 174
    Number of basis functions: 588
    Number of Cartesian functions: 723
    Spherical Harmonics?: true
    Max angular momentum: 4

  Cached 100.0% of DFT collocation blocks in 2.810 [GiB].

  Minimum eigenvalue in the overlap matrix is 1.7737457904E-04.
  Reciprocal condition number of the overlap matrix is 1.8322782708E-05.
    Using symmetric orthogonalization.

  ==> Pre-Iterations <==

  SCF Guess: Superposition of Atomic Densities via on-the-fly atomic UHF (no occupation information).

   -------------------------
    Irrep   Nso     Nmo    
   -------------------------
     A        276     276 
   -------------------------
    Total     276     276
   -------------------------

  ==> Iterations <==

                           Total Energy        Delta E     RMS |[F,P]|

   @DF-RKS iter SAD:   -76.05682360142180   -7.60568e+01   0.00000e+00 
   @DF-RKS iter   1:   -76.24320579714077   -1.86382e-01   2.64655e-03 DIIS/ADIIS
   @DF-RKS iter   2:   -75.64523363763152    5.97972e-01   5.05349e-03 DIIS/ADIIS
   @DF-RKS iter   3:   -76.42896838442208   -7.83735e-01   2.29013e-04 DIIS/ADIIS
   @DF-RKS iter   4:   -76.43084107944330   -1.87270e-03   2.81154e-05 DIIS
   @DF-RKS iter   5:   -76.43086018717960   -1.91077e-05   8.02550e-06 DIIS
   @DF-RKS iter   6:   -76.43086185429857   -1.66712e-06   4.43247e-07 DIIS
   @DF-RKS iter   7:   -76.43086185892143   -4.62286e-09   1.10797e-07 DIIS
   @DF-RKS iter   8:   -76.43086185925723   -3.35802e-10   2.50908e-08 DIIS
   @DF-RKS iter   9:   -76.43086185927665   -1.94120e-11   2.51682e-09 DIIS
   @DF-RKS iter  10:   -76.43086185927694   -2.98428e-13   1.41404e-10 DIIS
   @DF-RKS iter  11:   -76.43086185927666    2.84217e-13   1.63104e-11 DIIS
  Energy and wave function converged.


  ==> Post-Iterations <==

   Electrons on quadrature grid:
      Ntotal   =   10.0000018186 ; deviation = 1.819e-06 

    Orbital Energies [Eh]
    ---------------------

    Doubly Occupied:                                                      

       1A    -18.969223     2A     -0.975118     3A     -0.498960  
       4A     -0.353206     5A     -0.278279  

    Virtual:                                                              

       6A     -0.011908     7A      0.028650     8A      0.034869  
       9A      0.046410    10A      0.054088    11A      0.072711  
      12A      0.082957    13A      0.097237    14A      0.109943  
      15A      0.120970    16A      0.135412    17A      0.143956  
      18A      0.149716    19A      0.158251    20A      0.165658  
      21A      0.175330    22A      0.180810    23A      0.204689  
      24A      0.222962    25A      0.232488    26A      0.244364  
      27A      0.264953    28A      0.285727    29A      0.289539  
      30A      0.292458    31A      0.298672    32A      0.308502  
      33A      0.328977    34A      0.338100    35A      0.344149  
      36A      0.345341    37A      0.357615    38A      0.362898  
      39A      0.365811    40A      0.374247    41A      0.397010  
      42A      0.398082    43A      0.426551    44A      0.438292  
      45A      0.456736    46A      0.496317    47A      0.519867  
      48A      0.544739    49A      0.582473    50A      0.623950  
      51A      0.644373    52A      0.650961    53A      0.667333  
      54A      0.676098    55A      0.695987    56A      0.738546  
      57A      0.747566    58A      0.763872    59A      0.775589  
      60A      0.781942    61A      0.795452    62A      0.798398  
      63A      0.807483    64A      0.813930    65A      0.820365  
      66A      0.825210    67A      0.837745    68A      0.850036  
      69A      0.867071    70A      0.868869    71A      0.887111  
      72A      0.894483    73A      0.897215    74A      0.912364  
      75A      0.919099    76A      0.947795    77A      0.959050  
      78A      0.969535    79A      0.988158    80A      0.990047  
      81A      1.002039    82A      1.010144    83A      1.016345  
      84A      1.030099    85A      1.044106    86A      1.052306  
      87A      1.069924    88A      1.086166    89A      1.107413  
      90A      1.123492    91A      1.147568    92A      1.157709  
      93A      1.174386    94A      1.192382    95A      1.214734  
      96A      1.226332    97A      1.262209    98A      1.270114  
      99A      1.297945   100A      1.348284   101A      1.364091  
     102A      1.378442   103A      1.412610   104A      1.441317  
     105A      1.450119   106A      1.477192   107A      1.536496  
     108A      1.566204   109A      1.604937   110A      1.627999  
     111A      1.635066   112A      1.658884   113A      1.684860  
     114A      1.698233   115A      1.726314   116A      1.750805  
     117A      1.759852   118A      1.789831   119A      1.822003  
     120A      1.853128   121A      1.856659   122A      1.873148  
     123A      1.902901   124A      1.936347   125A      1.999654  
     126A      2.048771   127A      2.165511   128A      2.207721  
     129A      2.227054   130A      2.252544   131A      2.309481  
     132A      2.321225   133A      2.340699   134A      2.429843  
     135A      2.457839   136A      2.466155   137A      2.493460  
     138A      2.498372   139A      2.501651   140A      2.538337  
     141A      2.541200   142A      2.556995   143A      2.568499  
     144A      2.588090   145A      2.603031   146A      2.639157  
     147A      2.658099   148A      2.661979   149A      2.673148  
     150A      2.705352   151A      2.718551   152A      2.775092  
     153A      2.814868   154A      2.847934   155A      2.895460  
     156A      2.935872   157A      3.001083   158A      3.041087  
     159A      3.168753   160A      3.194502   161A      3.229189  
     162A      3.237331   163A      3.290770   164A      3.330886  
     165A      3.338351   166A      3.365626   167A      3.474776  
     168A      3.509803   169A      3.538840   170A      3.577689  
     171A      3.645715   172A      3.675123   173A      3.826370  
     174A      3.844465   175A      3.964398   176A      4.060702  
     177A      4.164235   178A      4.177133   179A      4.302657  
     180A      4.329934   181A      4.343988   182A      4.360423  
     183A      4.425263   184A      4.459956   185A      4.465968  
     186A      4.489733   187A      4.507283   188A      4.514879  
     189A      4.555940   190A      4.593660   191A      4.690816  
     192A      4.736356   193A      4.746205   194A      4.757836  
     195A      4.791452   196A      4.839735   197A      4.846927  
     198A      4.894494   199A      4.909269   200A      4.958498  
     201A      4.986341   202A      5.069474   203A      5.088014  
     204A      5.163356   205A      5.193231   206A      5.235297  
     207A      5.262002   208A      5.325705   209A      5.434123  
     210A      5.506719   211A      5.562026   212A      5.586356  
     213A      5.594872   214A      5.670227   215A      5.733811  
     216A      5.797895   217A      5.839868   218A      5.953406  
     219A      5.970648   220A      6.029428   221A      6.249508  
     222A      6.283454   223A      6.351307   224A      6.392705  
     225A      6.489269   226A      6.551833   227A      6.655734  
     228A      6.716462   229A      6.756268   230A      6.945153  
     231A      6.958116   232A      7.002521   233A      7.058641  
     234A      7.097392   235A      7.108929   236A      7.213561  
     237A      7.246053   238A      7.439648   239A      7.654224  
     240A      7.690574   241A      7.703659   242A      7.737900  
     243A      7.875596   244A      7.946403   245A      8.041547  
     246A      8.089734   247A      8.153059   248A      8.204120  
     249A      8.293955   250A      8.367950   251A      8.530539  
     252A      8.743687   253A      8.845331   254A      8.869568  
     255A      9.108300   256A      9.703001   257A      9.754180  
     258A      9.866221   259A      9.920102   260A      9.992588  
     261A     10.127388   262A     10.239221   263A     10.396373  
     264A     11.261963   265A     11.351241   266A     11.595920  
     267A     11.752779   268A     12.082233   269A     12.191501  
     270A     13.604662   271A     13.664677   272A     13.831461  
     273A     14.059165   274A     15.742702   275A     64.654952  
     276A     65.895399  

    Final Occupation by Irrep:
              A 
    DOCC [     5 ]
    NA   [     5 ]
    NB   [     5 ]

  @DF-RKS Final Energy:   -76.43086185927666

   => Energetics <=

    Nuclear Repulsion Energy =              9.0394239838567572
    One-Electron Energy =                -122.7841494242082945
    Two-Electron Energy =                  46.5987921498767577
    DFT Exchange-Correlation Energy =      -9.2849284188018615
    Empirical Dispersion Energy =          -0.0000001500000000
    VV10 Nonlocal Energy =                  0.0000000000000000
    Total Energy =                        -76.4308618592766607

Computation Completed


Properties will be evaluated at   0.000000,   0.000000,   0.000000 [a0]

Properties computed using the SCF density matrix


 Multipole Moments:

 ------------------------------------------------------------------------------------
     Multipole            Electronic (a.u.)      Nuclear  (a.u.)        Total (a.u.)
 ------------------------------------------------------------------------------------

 L = 1.  Multiply by 2.5417464519 to convert [e a0] to [Debye]
 Dipole X            :        -10.1669112           10.3696730            0.2027617
 Dipole Y            :         46.9285976          -46.5102467            0.4183509
 Dipole Z            :         38.1947863          -37.6554876            0.5392987
 Magnitude           :                                                    0.7120203

 ------------------------------------------------------------------------------------

*** tstop() called on d-19-15-2 at Sun Sep 17 12:50:11 2023
Module time:
	user time   =      50.18 seconds =       0.84 minutes
	system time =       0.30 seconds =       0.00 minutes
	total time  =         51 seconds =       0.85 minutes
Total time:
	user time   =     101.02 seconds =       1.68 minutes
	system time =       2.05 seconds =       0.03 minutes
	total time  =        107 seconds =       1.78 minutes

    Psi4 stopped on: Sunday, 17 September 2023 12:50PM
    Psi4 wall time for execution: 0:00:50.62


    -----------------------------------------------------------------------
          Psi4: An Open-Source Ab Initio Electronic Structure Package
                               Psi4 1.7 release

                         Git: Rev {HEAD} 6ce35a5 


    D. G. A. Smith, L. A. Burns, A. C. Simmonett, R. M. Parrish,
    M. C. Schieber, R. Galvelis, P. Kraus, H. Kruse, R. Di Remigio,
    A. Alenaizan, A. M. James, S. Lehtola, J. P. Misiewicz, M. Scheurer,
    R. A. Shaw, J. B. Schriber, Y. Xie, Z. L. Glick, D. A. Sirianni,
    J. S. O'Brien, J. M. Waldrop, A. Kumar, E. G. Hohenstein,
    B. P. Pritchard, B. R. Brooks, H. F. Schaefer III, A. Yu. Sokolov,
    K. Patkowski, A. E. DePrince III, U. Bozkaya, R. A. King,
    F. A. Evangelista, J. M. Turney, T. D. Crawford, C. D. Sherrill,
    J. Chem. Phys. 152(18) 184108 (2020). https://doi.org/10.1063/5.0006002

                            Additional Code Authors
    E. T. Seidl, C. L. Janssen, E. F. Valeev, M. L. Leininger,
    J. F. Gonthier, R. M. Richard, H. R. McAlexander, M. Saitow, X. Wang,
    P. Verma, M. H. Lechner, A. Jiang, S. Behnle, A. G. Heide,
    M. F. Herbst, and D. L. Poole

             Previous Authors, Complete List of Code Contributors,
                       and Citations for Specific Modules
    https://github.com/psi4/psi4/blob/master/codemeta.json
    https://github.com/psi4/psi4/graphs/contributors
    http://psicode.org/psi4manual/master/introduction.html#citing-psifour

    -----------------------------------------------------------------------


    Psi4 started on: Sunday, 17 September 2023 12:48PM

    Process ID: 258105
    Host:       d-19-15-2
    PSIDATADIR: /home/gridsan/kfisher/.conda/envs/p4env/share/psi4
    Memory:     18.6 GiB
    Threads:    1
    
  ==> Input QCSchema <==

--------------------------------------------------------------------------
{'driver': 'energy',
 'extras': {'psiapi': True, 'wfn_qcvars_only': True},
 'id': None,
 'keywords': {'D_CONVERGENCE': 1e-10, 'E_CONVERGENCE': 1e-10, 'function_kwargs': {'dft_functional': 'scan-d3zero2b'}},
 'model': {'basis': 'aug-cc-pvtz', 'method': 'scf'},
 'molecule': {'atom_labels': ['', '', '', '', '', '', '', '', ''],
              'atomic_numbers': [1, 1, 8, 1, 1, 8, 1, 1, 8],
              'fix_com': True,
              'fix_orientation': True,
              'fix_symmetry': 'c1',
              'fragment_charges': [0.0, 0.0, 0.0],
              'fragment_multiplicities': [1, 1, 1],
              'fragments': [[0, 1, 2], [3, 4, 5], [6, 7, 8]],
              'geometry': [4.601144589951697, -0.40663134326506045, -2.508494419703579, 7.305579647137981,
                           -0.98300612632465, -1.786005899240022, 5.731917850656521, -1.8018394609109631,
                           -2.208342283902231, 2.683563939199143, -4.274727188527134, -3.5375706516722962,
                           -0.11444670854839101, -3.992038295310061, -2.6573496016950084, 0.9750694655703398,
                           -4.780435152899174, -3.9325709196077763, 0.15146296625003902, -11.365354041579403,
                           -3.14658282032174, -0.06978503468288823, -8.596905154400119, -2.7013614365404885,
                           -0.47558735509671035, -10.209960861994276, -1.9014999884934483],
              'mass_numbers': [1, 1, 16, 1, 1, 16, 1, 1, 16],
              'masses': [1.00782503223, 1.00782503223, 15.99491461957, 1.00782503223, 1.00782503223, 15.99491461957,
                         1.00782503223, 1.00782503223, 15.99491461957],
              'molecular_charge': 0.0,
              'molecular_multiplicity': 1,
              'name': 'H6O3',
              'provenance': {'creator': 'QCElemental',
                             'routine': 'qcelemental.molparse.from_string',
                             'version': 'v0.25.1'},
              'real': [False, False, False, True, True, True, True, True, True],
              'schema_name': 'qcschema_molecule',
              'schema_version': 2,
              'symbols': ['H', 'H', 'O', 'H', 'H', 'O', 'H', 'H', 'O'],
              'validated': True},
 'protocols': {'stdout': True},
 'provenance': {'creator': 'QCElemental', 'routine': 'qcelemental.models.results', 'version': 'v0.25.1'},
 'schema_name': 'qcschema_input',
 'schema_version': 1}
--------------------------------------------------------------------------

Scratch directory: /home/gridsan/kfisher/scratch/

*** tstart() called on d-19-15-2
*** at Sun Sep 17 12:50:11 2023

   => Loading Basis Set <=

    Name: AUG-CC-PVTZ
    Role: ORBITAL
    Keyword: BASIS
    atoms 1-2, 4-5, 7-8 entry H          line    40 file /home/gridsan/kfisher/.conda/envs/p4env/share/psi4/basis/aug-cc-pvtz.gbs 
    atoms 3, 6, 9       entry O          line   331 file /home/gridsan/kfisher/.conda/envs/p4env/share/psi4/basis/aug-cc-pvtz.gbs 

   => SCAN-D3: Empirical Dispersion <=

    Grimme's -D3 (zero-damping) Dispersion Correction
    Grimme S.; Antony J.; Ehrlich S.; Krieg H. (2010), J. Chem. Phys., 132: 154104
    Parametrisation from:    J.G. Brandenburg, J. E. Bates, J. Sun, J.P. Perdew, Phys. Rev. B 94, 115144, 2016

        s6 =       1.000000
        s8 =       0.000000
       sr6 =       1.324000
    alpha6 =      14.000000
       sr8 =       1.000000


         ---------------------------------------------------------
                                   SCF
               by Justin Turney, Rob Parrish, Andy Simmonett
                          and Daniel G. A. Smith
                              RKS Reference
                        1 Threads,  19073 MiB Core
         ---------------------------------------------------------

  ==> Geometry <==

    Molecular point group: c1
    Full point group: C1

    Geometry (in Bohr), charge = 0, multiplicity = 1:

       Center              X                  Y                   Z               Mass       
    ------------   -----------------  -----------------  -----------------  -----------------
      Gh(H)           4.601144589952    -0.406631343265    -2.508494419704     1.007825032230
      Gh(H)           7.305579647138    -0.983006126325    -1.786005899240     1.007825032230
      Gh(O)           5.731917850657    -1.801839460911    -2.208342283902    15.994914619570
         H            2.683563939199    -4.274727188527    -3.537570651672     1.007825032230
         H           -0.114446708548    -3.992038295310    -2.657349601695     1.007825032230
         O            0.975069465570    -4.780435152899    -3.932570919608    15.994914619570
         H            0.151462966250   -11.365354041579    -3.146582820322     1.007825032230
         H           -0.069785034683    -8.596905154400    -2.701361436540     1.007825032230
         O           -0.475587355097   -10.209960861994    -1.901499988493    15.994914619570

  Running in c1 symmetry.

  Rotational constants: A =      0.08010  B =      0.02222  C =      0.01823 [cm^-1]
  Rotational constants: A =   2401.26552  B =    666.24782  C =    546.39975 [MHz]
  Nuclear repulsion =   35.094238876795686

  Charge       = 0
  Multiplicity = 1
  Electrons    = 20
  Nalpha       = 10
  Nbeta        = 10

  ==> Algorithm <==

  SCF Algorithm Type is DF.
  DIIS enabled.
  MOM disabled.
  Fractional occupation disabled.
  Guess Type is SAD.
  Energy threshold   = 1.00e-10
  Density threshold  = 1.00e-10
  Integral threshold = 1.00e-12

  ==> Primary Basis <==

  Basis Set: AUG-CC-PVTZ
    Blend: AUG-CC-PVTZ
    Number of shells: 96
    Number of basis functions: 276
    Number of Cartesian functions: 315
    Spherical Harmonics?: true
    Max angular momentum: 3

  ==> DFT Potential <==

   => Composite Functional: SCAN-D3ZERO2B <= 

    SCAN Meta-GGA XC Functional
(10.1103/PhysRevLett.115.036402)
    J. Sun, A. Ruzsinszky, J. P. Perdew  Phys. Rev. Lett. 115, 036402, 2015


    Deriv               =              1
    GGA                 =           TRUE
    Meta                =           TRUE

    Exchange Hybrid     =          FALSE
    MP2 Hybrid          =          FALSE

   => Exchange Functionals <=

    1.0000   XC_MGGA_X_SCAN

   => Correlation Functionals <=

    1.0000   XC_MGGA_C_SCAN

   => LibXC Density Thresholds  <==

    XC_MGGA_C_SCAN:  1.00E-15 
    XC_MGGA_X_SCAN:  1.00E-15 

   => Molecular Quadrature <=

    Radial Scheme          =       TREUTLER
    Pruning Scheme         =           NONE
    Nuclear Scheme         =       TREUTLER

    Blocking Scheme        =         OCTREE
    BS radius alpha        =              1
    Pruning alpha          =              1
    Radial Points          =             75
    Spherical Points       =            302
    Total Points           =         198308
    Total Blocks           =           1502
    Max Points             =            256
    Max Functions          =            254
    Weights Tolerance      =       1.00E-15

   => Loading Basis Set <=

    Name: (AUG-CC-PVTZ AUX)
    Role: JKFIT
    Keyword: DF_BASIS_SCF
    atoms 1-2, 4-5, 7-8 entry H          line    70 file /home/gridsan/kfisher/.conda/envs/p4env/share/psi4/basis/aug-cc-pvtz-jkfit.gbs 
    atoms 3, 6, 9       entry O          line   286 file /home/gridsan/kfisher/.conda/envs/p4env/share/psi4/basis/aug-cc-pvtz-jkfit.gbs 

  ==> Integral Setup <==

  DFHelper Memory: AOs need 0.320 GiB; user supplied 11.160 GiB. Using in-core AOs.

  ==> MemDFJK: Density-Fitted J/K Matrices <==

    J tasked:                   Yes
    K tasked:                    No
    wK tasked:                   No
    OpenMP threads:               1
    Memory [MiB]:             11428
    Algorithm:                 Core
    Schwarz Cutoff:           1E-12
    Mask sparsity (%):       9.6487
    Fitting Condition:        1E-10

   => Auxiliary Basis Set <=

  Basis Set: (AUG-CC-PVTZ AUX)
    Blend: AUG-CC-PVTZ-JKFIT
    Number of shells: 174
    Number of basis functions: 588
    Number of Cartesian functions: 723
    Spherical Harmonics?: true
    Max angular momentum: 4

  Cached 100.0% of DFT collocation blocks in 2.810 [GiB].

  Minimum eigenvalue in the overlap matrix is 1.7737457904E-04.
  Reciprocal condition number of the overlap matrix is 1.8322782708E-05.
    Using symmetric orthogonalization.

  ==> Pre-Iterations <==

  SCF Guess: Superposition of Atomic Densities via on-the-fly atomic UHF (no occupation information).

   -------------------------
    Irrep   Nso     Nmo    
   -------------------------
     A        276     276 
   -------------------------
    Total     276     276
   -------------------------

  ==> Iterations <==

                           Total Energy        Delta E     RMS |[F,P]|

   @DF-RKS iter SAD:  -152.15055081805440   -1.52151e+02   0.00000e+00 
   @DF-RKS iter   1:  -152.51117825871103   -3.60627e-01   3.67561e-03 DIIS/ADIIS
   @DF-RKS iter   2:  -151.52815015851928    9.83028e-01   6.68238e-03 DIIS/ADIIS
   @DF-RKS iter   3:  -152.86645217530804   -1.33830e+00   2.79192e-04 DIIS/ADIIS
   @DF-RKS iter   4:  -152.86873891371860   -2.28674e-03   1.18826e-04 DIIS/ADIIS
   @DF-RKS iter   5:  -152.86900265091961   -2.63737e-04   6.28090e-05 DIIS
   @DF-RKS iter   6:  -152.86910457472786   -1.01924e-04   7.88424e-06 DIIS
   @DF-RKS iter   7:  -152.86910631808345   -1.74336e-06   8.40343e-07 DIIS
   @DF-RKS iter   8:  -152.86910633749756   -1.94141e-08   2.26069e-07 DIIS
   @DF-RKS iter   9:  -152.86910633903199   -1.53443e-09   2.91495e-08 DIIS
   @DF-RKS iter  10:  -152.86910633905791   -2.59206e-11   2.79464e-09 DIIS
   @DF-RKS iter  11:  -152.86910633905836   -4.54747e-13   6.03572e-10 DIIS
   @DF-RKS iter  12:  -152.86910633905799    3.69482e-13   9.62872e-11 DIIS
  Energy and wave function converged.


  ==> Post-Iterations <==

   Electrons on quadrature grid:
      Ntotal   =   20.0000033146 ; deviation = 3.315e-06 

    Orbital Energies [Eh]
    ---------------------

    Doubly Occupied:                                                      

       1A    -18.991811     2A    -18.949639     3A     -0.997870  
       4A     -0.961495     5A     -0.520511     6A     -0.471089  
       7A     -0.378069     8A     -0.346310     9A     -0.301171  
      10A     -0.261915  

    Virtual:                                                              

      11A     -0.023952    12A      0.014247    13A      0.024863  
      14A      0.040484    15A      0.049827    16A      0.069650  
      17A      0.075196    18A      0.089922    19A      0.097362  
      20A      0.106623    21A      0.120706    22A      0.133790  
      23A      0.144307    24A      0.150881    25A      0.159115  
      26A      0.164714    27A      0.167711    28A      0.184766  
      29A      0.191271    30A      0.209301    31A      0.215831  
      32A      0.233473    33A      0.249930    34A      0.258855  
      35A      0.268297    36A      0.272994    37A      0.287643  
      38A      0.301231    39A      0.322931    40A      0.331675  
      41A      0.334019    42A      0.337421    43A      0.348379  
      44A      0.351743    45A      0.358194    46A      0.371907  
      47A      0.379310    48A      0.390539    49A      0.418911  
      50A      0.439240    51A      0.466342    52A      0.503016  
      53A      0.510918    54A      0.560295    55A      0.573109  
      56A      0.601116    57A      0.602162    58A      0.626587  
      59A      0.637815    60A      0.644382    61A      0.652759  
      62A      0.670030    63A      0.679957    64A      0.723765  
      65A      0.735748    66A      0.737900    67A      0.743712  
      68A      0.770757    69A      0.772855    70A      0.781883  
      71A      0.793467    72A      0.806771    73A      0.812731  
      74A      0.831372    75A      0.842762    76A      0.857167  
      77A      0.867075    78A      0.871145    79A      0.885590  
      80A      0.888374    81A      0.902517    82A      0.908452  
      83A      0.918912    84A      0.936056    85A      0.954401  
      86A      0.963843    87A      0.975494    88A      0.985806  
      89A      1.000288    90A      1.009135    91A      1.023838  
      92A      1.044072    93A      1.066149    94A      1.070296  
      95A      1.086837    96A      1.109765    97A      1.121646  
      98A      1.140233    99A      1.146635   100A      1.172581  
     101A      1.182204   102A      1.198762   103A      1.220017  
     104A      1.242566   105A      1.279120   106A      1.296595  
     107A      1.342893   108A      1.365198   109A      1.380464  
     110A      1.410696   111A      1.424179   112A      1.442836  
     113A      1.452483   114A      1.490775   115A      1.509417  
     116A      1.536809   117A      1.575877   118A      1.617990  
     119A      1.633159   120A      1.655646   121A      1.687504  
     122A      1.705531   123A      1.739048   124A      1.782626  
     125A      1.797270   126A      1.836509   127A      1.851258  
     128A      1.862735   129A      1.887482   130A      1.940165  
     131A      2.033132   132A      2.086721   133A      2.102106  
     134A      2.166691   135A      2.174156   136A      2.201687  
     137A      2.219536   138A      2.236904   139A      2.256487  
     140A      2.263621   141A      2.303771   142A      2.322557  
     143A      2.346264   144A      2.373018   145A      2.429904  
     146A      2.452584   147A      2.485334   148A      2.505878  
     149A      2.521644   150A      2.533120   151A      2.549286  
     152A      2.563977   153A      2.570791   154A      2.617511  
     155A      2.623502   156A      2.648910   157A      2.659885  
     158A      2.669826   159A      2.740603   160A      2.767985  
     161A      2.804120   162A      2.816939   163A      2.854433  
     164A      2.869669   165A      2.927480   166A      3.028222  
     167A      3.163872   168A      3.229011   169A      3.287436  
     170A      3.331636   171A      3.340378   172A      3.516888  
     173A      3.525836   174A      3.598844   175A      3.636673  
     176A      3.743591   177A      3.797398   178A      3.845801  
     179A      3.927485   180A      3.954854   181A      4.021182  
     182A      4.046594   183A      4.135238   184A      4.141489  
     185A      4.159797   186A      4.176562   187A      4.254974  
     188A      4.280436   189A      4.290814   190A      4.307109  
     191A      4.321908   192A      4.352474   193A      4.360061  
     194A      4.414660   195A      4.446764   196A      4.467520  
     197A      4.473616   198A      4.485881   199A      4.529367  
     200A      4.571146   201A      4.606624   202A      4.719479  
     203A      4.746381   204A      4.780524   205A      4.838248  
     206A      4.841077   207A      4.903773   208A      4.956351  
     209A      4.990838   210A      5.038830   211A      5.065954  
     212A      5.100044   213A      5.141112   214A      5.157438  
     215A      5.191544   216A      5.232022   217A      5.233522  
     218A      5.306902   219A      5.377212   220A      5.490863  
     221A      5.549995   222A      5.569575   223A      5.586511  
     224A      5.727640   225A      5.949274   226A      5.968336  
     227A      6.008391   228A      6.243294   229A      6.267939  
     230A      6.281676   231A      6.385099   232A      6.464970  
     233A      6.504744   234A      6.622872   235A      6.709154  
     236A      6.723248   237A      6.848417   238A      6.912846  
     239A      6.920263   240A      6.936168   241A      6.976603  
     242A      6.998058   243A      7.015809   244A      7.036165  
     245A      7.066098   246A      7.080169   247A      7.097316  
     248A      7.132181   249A      7.196941   250A      7.337720  
     251A      7.419599   252A      7.637998   253A      7.663809  
     254A      7.669889   255A      7.690114   256A      7.719607  
     257A      7.868022   258A      8.034166   259A      8.144986  
     260A      8.284990   261A      8.497893   262A      8.568193  
     263A      8.736350   264A      8.837484   265A      9.746275  
     266A      9.859326   267A      9.984466   268A     10.230527  
     269A     11.253728   270A     11.587678   271A     12.075290  
     272A     13.595411   273A     13.821294   274A     15.447656  
     275A     15.919646   276A     64.629718  

    Final Occupation by Irrep:
              A 
    DOCC [    10 ]
    NA   [    10 ]
    NB   [    10 ]

  @DF-RKS Final Energy:  -152.86910633905799

   => Energetics <=

    Nuclear Repulsion Energy =             35.0942388767956857
    One-Electron Energy =                -279.5447074527745031
    Two-Electron Energy =                 110.1645771553215525
    DFT Exchange-Correlation Energy =     -18.5830051084007337
    Empirical Dispersion Energy =          -0.0002098100000000
    VV10 Nonlocal Energy =                  0.0000000000000000
    Total Energy =                       -152.8691063390579927

Computation Completed


Properties will be evaluated at   0.000000,   0.000000,   0.000000 [a0]

Properties computed using the SCF density matrix


 Multipole Moments:

 ------------------------------------------------------------------------------------
     Multipole            Electronic (a.u.)      Nuclear  (a.u.)        Total (a.u.)
 ------------------------------------------------------------------------------------

 L = 1.  Multiply by 2.5417464519 to convert [e a0] to [Debye]
 Dipole X            :         -6.0658001            6.6466520            0.5808519
 Dipole Y            :        148.8904766         -148.1521928            0.7382838
 Dipole Z            :         58.5523411          -58.7154318           -0.1630907
 Magnitude           :                                                    0.9534414

 ------------------------------------------------------------------------------------

*** tstop() called on d-19-15-2 at Sun Sep 17 12:51:04 2023
Module time:
	user time   =      53.02 seconds =       0.88 minutes
	system time =       0.09 seconds =       0.00 minutes
	total time  =         53 seconds =       0.88 minutes
Total time:
	user time   =     154.10 seconds =       2.57 minutes
	system time =       2.14 seconds =       0.04 minutes
	total time  =        160 seconds =       2.67 minutes

    Psi4 stopped on: Sunday, 17 September 2023 12:51PM
    Psi4 wall time for execution: 0:00:53.27


    -----------------------------------------------------------------------
          Psi4: An Open-Source Ab Initio Electronic Structure Package
                               Psi4 1.7 release

                         Git: Rev {HEAD} 6ce35a5 


    D. G. A. Smith, L. A. Burns, A. C. Simmonett, R. M. Parrish,
    M. C. Schieber, R. Galvelis, P. Kraus, H. Kruse, R. Di Remigio,
    A. Alenaizan, A. M. James, S. Lehtola, J. P. Misiewicz, M. Scheurer,
    R. A. Shaw, J. B. Schriber, Y. Xie, Z. L. Glick, D. A. Sirianni,
    J. S. O'Brien, J. M. Waldrop, A. Kumar, E. G. Hohenstein,
    B. P. Pritchard, B. R. Brooks, H. F. Schaefer III, A. Yu. Sokolov,
    K. Patkowski, A. E. DePrince III, U. Bozkaya, R. A. King,
    F. A. Evangelista, J. M. Turney, T. D. Crawford, C. D. Sherrill,
    J. Chem. Phys. 152(18) 184108 (2020). https://doi.org/10.1063/5.0006002

                            Additional Code Authors
    E. T. Seidl, C. L. Janssen, E. F. Valeev, M. L. Leininger,
    J. F. Gonthier, R. M. Richard, H. R. McAlexander, M. Saitow, X. Wang,
    P. Verma, M. H. Lechner, A. Jiang, S. Behnle, A. G. Heide,
    M. F. Herbst, and D. L. Poole

             Previous Authors, Complete List of Code Contributors,
                       and Citations for Specific Modules
    https://github.com/psi4/psi4/blob/master/codemeta.json
    https://github.com/psi4/psi4/graphs/contributors
    http://psicode.org/psi4manual/master/introduction.html#citing-psifour

    -----------------------------------------------------------------------


    Psi4 started on: Sunday, 17 September 2023 12:48PM

    Process ID: 258105
    Host:       d-19-15-2
    PSIDATADIR: /home/gridsan/kfisher/.conda/envs/p4env/share/psi4
    Memory:     18.6 GiB
    Threads:    1
    
  ==> Input QCSchema <==

--------------------------------------------------------------------------
{'driver': 'energy',
 'extras': {'psiapi': True, 'wfn_qcvars_only': True},
 'id': None,
 'keywords': {'D_CONVERGENCE': 1e-10, 'E_CONVERGENCE': 1e-10, 'function_kwargs': {'dft_functional': 'scan-d3zero2b'}},
 'model': {'basis': 'aug-cc-pvtz', 'method': 'scf'},
 'molecule': {'atom_labels': ['', '', '', '', '', '', '', '', ''],
              'atomic_numbers': [1, 1, 8, 1, 1, 8, 1, 1, 8],
              'fix_com': True,
              'fix_orientation': True,
              'fix_symmetry': 'c1',
              'fragment_charges': [0.0, 0.0, 0.0],
              'fragment_multiplicities': [1, 1, 1],
              'fragments': [[0, 1, 2], [3, 4, 5], [6, 7, 8]],
              'geometry': [4.601144589951697, -0.40663134326506045, -2.508494419703579, 7.305579647137981,
                           -0.98300612632465, -1.786005899240022, 5.731917850656521, -1.8018394609109631,
                           -2.208342283902231, 2.683563939199143, -4.274727188527134, -3.5375706516722962,
                           -0.11444670854839101, -3.992038295310061, -2.6573496016950084, 0.9750694655703398,
                           -4.780435152899174, -3.9325709196077763, 0.15146296625003902, -11.365354041579403,
                           -3.14658282032174, -0.06978503468288823, -8.596905154400119, -2.7013614365404885,
                           -0.47558735509671035, -10.209960861994276, -1.9014999884934483],
              'mass_numbers': [1, 1, 16, 1, 1, 16, 1, 1, 16],
              'masses': [1.00782503223, 1.00782503223, 15.99491461957, 1.00782503223, 1.00782503223, 15.99491461957,
                         1.00782503223, 1.00782503223, 15.99491461957],
              'molecular_charge': 0.0,
              'molecular_multiplicity': 1,
              'name': 'H6O3',
              'provenance': {'creator': 'QCElemental',
                             'routine': 'qcelemental.molparse.from_string',
                             'version': 'v0.25.1'},
              'real': [True, True, True, False, False, False, True, True, True],
              'schema_name': 'qcschema_molecule',
              'schema_version': 2,
              'symbols': ['H', 'H', 'O', 'H', 'H', 'O', 'H', 'H', 'O'],
              'validated': True},
 'protocols': {'stdout': True},
 'provenance': {'creator': 'QCElemental', 'routine': 'qcelemental.models.results', 'version': 'v0.25.1'},
 'schema_name': 'qcschema_input',
 'schema_version': 1}
--------------------------------------------------------------------------

Scratch directory: /home/gridsan/kfisher/scratch/

*** tstart() called on d-19-15-2
*** at Sun Sep 17 12:51:04 2023

   => Loading Basis Set <=

    Name: AUG-CC-PVTZ
    Role: ORBITAL
    Keyword: BASIS
    atoms 1-2, 4-5, 7-8 entry H          line    40 file /home/gridsan/kfisher/.conda/envs/p4env/share/psi4/basis/aug-cc-pvtz.gbs 
    atoms 3, 6, 9       entry O          line   331 file /home/gridsan/kfisher/.conda/envs/p4env/share/psi4/basis/aug-cc-pvtz.gbs 

   => SCAN-D3: Empirical Dispersion <=

    Grimme's -D3 (zero-damping) Dispersion Correction
    Grimme S.; Antony J.; Ehrlich S.; Krieg H. (2010), J. Chem. Phys., 132: 154104
    Parametrisation from:    J.G. Brandenburg, J. E. Bates, J. Sun, J.P. Perdew, Phys. Rev. B 94, 115144, 2016

        s6 =       1.000000
        s8 =       0.000000
       sr6 =       1.324000
    alpha6 =      14.000000
       sr8 =       1.000000


         ---------------------------------------------------------
                                   SCF
               by Justin Turney, Rob Parrish, Andy Simmonett
                          and Daniel G. A. Smith
                              RKS Reference
                        1 Threads,  19073 MiB Core
         ---------------------------------------------------------

  ==> Geometry <==

    Molecular point group: c1
    Full point group: C1

    Geometry (in Bohr), charge = 0, multiplicity = 1:

       Center              X                  Y                   Z               Mass       
    ------------   -----------------  -----------------  -----------------  -----------------
         H            4.601144589952    -0.406631343265    -2.508494419704     1.007825032230
         H            7.305579647138    -0.983006126325    -1.786005899240     1.007825032230
         O            5.731917850657    -1.801839460911    -2.208342283902    15.994914619570
      Gh(H)           2.683563939199    -4.274727188527    -3.537570651672     1.007825032230
      Gh(H)          -0.114446708548    -3.992038295310    -2.657349601695     1.007825032230
      Gh(O)           0.975069465570    -4.780435152899    -3.932570919608    15.994914619570
         H            0.151462966250   -11.365354041579    -3.146582820322     1.007825032230
         H           -0.069785034683    -8.596905154400    -2.701361436540     1.007825032230
         O           -0.475587355097   -10.209960861994    -1.901499988493    15.994914619570

  Running in c1 symmetry.

  Rotational constants: A =      0.08010  B =      0.02222  C =      0.01823 [cm^-1]
  Rotational constants: A =   2401.26552  B =    666.24782  C =    546.39975 [MHz]
  Nuclear repulsion =   27.723625948258196

  Charge       = 0
  Multiplicity = 1
  Electrons    = 20
  Nalpha       = 10
  Nbeta        = 10

  ==> Algorithm <==

  SCF Algorithm Type is DF.
  DIIS enabled.
  MOM disabled.
  Fractional occupation disabled.
  Guess Type is SAD.
  Energy threshold   = 1.00e-10
  Density threshold  = 1.00e-10
  Integral threshold = 1.00e-12

  ==> Primary Basis <==

  Basis Set: AUG-CC-PVTZ
    Blend: AUG-CC-PVTZ
    Number of shells: 96
    Number of basis functions: 276
    Number of Cartesian functions: 315
    Spherical Harmonics?: true
    Max angular momentum: 3

  ==> DFT Potential <==

   => Composite Functional: SCAN-D3ZERO2B <= 

    SCAN Meta-GGA XC Functional
(10.1103/PhysRevLett.115.036402)
    J. Sun, A. Ruzsinszky, J. P. Perdew  Phys. Rev. Lett. 115, 036402, 2015


    Deriv               =              1
    GGA                 =           TRUE
    Meta                =           TRUE

    Exchange Hybrid     =          FALSE
    MP2 Hybrid          =          FALSE

   => Exchange Functionals <=

    1.0000   XC_MGGA_X_SCAN

   => Correlation Functionals <=

    1.0000   XC_MGGA_C_SCAN

   => LibXC Density Thresholds  <==

    XC_MGGA_C_SCAN:  1.00E-15 
    XC_MGGA_X_SCAN:  1.00E-15 

   => Molecular Quadrature <=

    Radial Scheme          =       TREUTLER
    Pruning Scheme         =           NONE
    Nuclear Scheme         =       TREUTLER

    Blocking Scheme        =         OCTREE
    BS radius alpha        =              1
    Pruning alpha          =              1
    Radial Points          =             75
    Spherical Points       =            302
    Total Points           =         198308
    Total Blocks           =           1502
    Max Points             =            256
    Max Functions          =            254
    Weights Tolerance      =       1.00E-15

   => Loading Basis Set <=

    Name: (AUG-CC-PVTZ AUX)
    Role: JKFIT
    Keyword: DF_BASIS_SCF
    atoms 1-2, 4-5, 7-8 entry H          line    70 file /home/gridsan/kfisher/.conda/envs/p4env/share/psi4/basis/aug-cc-pvtz-jkfit.gbs 
    atoms 3, 6, 9       entry O          line   286 file /home/gridsan/kfisher/.conda/envs/p4env/share/psi4/basis/aug-cc-pvtz-jkfit.gbs 

  ==> Integral Setup <==

  DFHelper Memory: AOs need 0.320 GiB; user supplied 11.160 GiB. Using in-core AOs.

  ==> MemDFJK: Density-Fitted J/K Matrices <==

    J tasked:                   Yes
    K tasked:                    No
    wK tasked:                   No
    OpenMP threads:               1
    Memory [MiB]:             11428
    Algorithm:                 Core
    Schwarz Cutoff:           1E-12
    Mask sparsity (%):       9.6487
    Fitting Condition:        1E-10

   => Auxiliary Basis Set <=

  Basis Set: (AUG-CC-PVTZ AUX)
    Blend: AUG-CC-PVTZ-JKFIT
    Number of shells: 174
    Number of basis functions: 588
    Number of Cartesian functions: 723
    Spherical Harmonics?: true
    Max angular momentum: 4

  Cached 100.0% of DFT collocation blocks in 2.810 [GiB].

  Minimum eigenvalue in the overlap matrix is 1.7737457904E-04.
  Reciprocal condition number of the overlap matrix is 1.8322782708E-05.
    Using symmetric orthogonalization.

  ==> Pre-Iterations <==

  SCF Guess: Superposition of Atomic Densities via on-the-fly atomic UHF (no occupation information).

   -------------------------
    Irrep   Nso     Nmo    
   -------------------------
     A        276     276 
   -------------------------
    Total     276     276
   -------------------------

  ==> Iterations <==

                           Total Energy        Delta E     RMS |[F,P]|

   @DF-RKS iter SAD:  -152.12501953141458   -1.52125e+02   0.00000e+00 
   @DF-RKS iter   1:  -152.48951670380663   -3.64497e-01   3.73834e-03 DIIS/ADIIS
   @DF-RKS iter   2:  -151.37952776578089    1.10999e+00   6.99186e-03 DIIS/ADIIS
   @DF-RKS iter   3:  -152.85966163167677   -1.48013e+00   2.84023e-04 DIIS/ADIIS
   @DF-RKS iter   4:  -152.86247693496696   -2.81530e-03   4.90768e-05 DIIS
   @DF-RKS iter   5:  -152.86250228173634   -2.53468e-05   3.82496e-05 DIIS
   @DF-RKS iter   6:  -152.86253527182953   -3.29901e-05   1.37590e-05 DIIS
   @DF-RKS iter   7:  -152.86254018202476   -4.91020e-06   4.47452e-07 DIIS
   @DF-RKS iter   8:  -152.86254018691656   -4.89180e-09   9.24810e-08 DIIS
   @DF-RKS iter   9:  -152.86254018715474   -2.38174e-10   2.65446e-08 DIIS
   @DF-RKS iter  10:  -152.86254018717645   -2.17142e-11   1.60624e-09 DIIS
   @DF-RKS iter  11:  -152.86254018717685   -3.97904e-13   2.42489e-10 DIIS
   @DF-RKS iter  12:  -152.86254018717645    3.97904e-13   6.46695e-11 DIIS
  Energy and wave function converged.


  ==> Post-Iterations <==

   Electrons on quadrature grid:
      Ntotal   =   20.0000019648 ; deviation = 1.965e-06 

    Orbital Energies [Eh]
    ---------------------

    Doubly Occupied:                                                      

       1A    -18.972462     2A    -18.964580     3A     -0.984353  
       4A     -0.975589     5A     -0.499938     6A     -0.484357  
       7A     -0.363501     8A     -0.359027     9A     -0.283041  
      10A     -0.273977  

    Virtual:                                                              

      11A     -0.015398    12A     -0.002152    13A      0.029518  
      14A      0.044039    15A      0.049985    16A      0.068397  
      17A      0.083963    18A      0.090815    19A      0.094838  
      20A      0.114727    21A      0.124300    22A      0.125406  
      23A      0.147732    24A      0.150165    25A      0.159816  
      26A      0.164722    27A      0.168542    28A      0.190858  
      29A      0.205462    30A      0.216339    31A      0.222025  
      32A      0.237794    33A      0.245196    34A      0.252288  
      35A      0.258716    36A      0.268333    37A      0.275146  
      38A      0.298741    39A      0.322748    40A      0.328279  
      41A      0.340639    42A      0.346955    43A      0.355218  
      44A      0.357443    45A      0.363115    46A      0.389467  
      47A      0.396527    48A      0.413239    49A      0.417073  
      50A      0.456575    51A      0.468194    52A      0.501447  
      53A      0.521320    54A      0.560435    55A      0.581117  
      56A      0.602713    57A      0.617154    58A      0.627520  
      59A      0.639872    60A      0.647088    61A      0.654651  
      62A      0.664810    63A      0.683953    64A      0.722990  
      65A      0.731767    66A      0.748624    67A      0.765416  
      68A      0.778709    69A      0.785682    70A      0.800551  
      71A      0.809685    72A      0.829885    73A      0.833249  
      74A      0.844440    75A      0.848292    76A      0.851535  
      77A      0.856232    78A      0.875674    79A      0.888240  
      80A      0.896401    81A      0.906658    82A      0.913366  
      83A      0.928490    84A      0.930849    85A      0.945830  
      86A      0.960006    87A      0.967811    88A      0.984697  
      89A      0.999704    90A      1.008218    91A      1.026916  
      92A      1.029656    93A      1.057474    94A      1.083507  
      95A      1.111157    96A      1.131099    97A      1.133662  
      98A      1.155232    99A      1.174196   100A      1.177653  
     101A      1.199046   102A      1.209364   103A      1.234868  
     104A      1.251018   105A      1.279518   106A      1.317413  
     107A      1.348816   108A      1.370928   109A      1.410113  
     110A      1.418733   111A      1.426925   112A      1.444140  
     113A      1.472656   114A      1.494286   115A      1.537194  
     116A      1.561873   117A      1.571330   118A      1.611365  
     119A      1.646892   120A      1.708307   121A      1.715345  
     122A      1.754586   123A      1.783371   124A      1.802315  
     125A      1.811445   126A      1.861632   127A      1.872380  
     128A      1.884101   129A      1.892926   130A      1.999514  
     131A      2.052950   132A      2.073069   133A      2.097601  
     134A      2.111996   135A      2.168939   136A      2.185811  
     137A      2.224575   138A      2.241454   139A      2.251883  
     140A      2.289282   141A      2.295776   142A      2.305542  
     143A      2.329451   144A      2.341385   145A      2.355070  
     146A      2.376695   147A      2.446884   148A      2.492326  
     149A      2.531114   150A      2.547191   151A      2.579222  
     152A      2.595596   153A      2.610114   154A      2.625115  
     155A      2.641256   156A      2.669468   157A      2.689061  
     158A      2.715049   159A      2.780090   160A      2.805602  
     161A      2.816079   162A      2.832299   163A      2.872509  
     164A      2.955525   165A      3.028038   166A      3.065767  
     167A      3.182354   168A      3.246124   169A      3.343258  
     170A      3.354514   171A      3.472877   172A      3.499874  
     173A      3.533195   174A      3.663205   175A      3.675903  
     176A      3.767756   177A      3.802748   178A      3.850320  
     179A      3.864285   180A      3.930834   181A      3.942224  
     182A      4.051373   183A      4.074641   184A      4.138235  
     185A      4.172088   186A      4.183467   187A      4.232293  
     188A      4.260015   189A      4.268646   190A      4.296347  
     191A      4.300982   192A      4.318166   193A      4.388936  
     194A      4.396915   195A      4.422444   196A      4.454467  
     197A      4.495531   198A      4.515904   199A      4.566164  
     200A      4.619949   201A      4.626313   202A      4.677576  
     203A      4.746242   204A      4.776495   205A      4.861460  
     206A      4.967825   207A      5.010117   208A      5.033447  
     209A      5.053488   210A      5.066019   211A      5.101989  
     212A      5.121478   213A      5.171119   214A      5.199417  
     215A      5.213947   216A      5.265943   217A      5.301597  
     218A      5.325445   219A      5.362687   220A      5.478803  
     221A      5.515998   222A      5.575086   223A      5.597593  
     224A      5.718051   225A      5.847493   226A      5.962467  
     227A      5.984847   228A      6.247022   229A      6.264594  
     230A      6.368653   231A      6.405725   232A      6.450748  
     233A      6.459037   234A      6.652417   235A      6.707665  
     236A      6.721257   237A      6.838229   238A      6.847620  
     239A      6.916011   240A      6.926237   241A      6.981845  
     242A      6.988600   243A      7.020383   244A      7.032016  
     245A      7.046607   246A      7.075793   247A      7.081405  
     248A      7.087660   249A      7.091604   250A      7.332933  
     251A      7.386804   252A      7.587538   253A      7.636937  
     254A      7.663845   255A      7.685679   256A      7.779874  
     257A      7.872581   258A      8.135066   259A      8.225599  
     260A      8.286390   261A      8.561110   262A      8.577868  
     263A      8.751447   264A      8.915276   265A      9.775778  
     266A      9.936062   267A     10.099455   268A     10.287379  
     269A     11.117079   270A     11.840648   271A     12.146684  
     272A     13.546711   273A     13.938881   274A     15.160008  
     275A     15.670645   276A     66.008863  

    Final Occupation by Irrep:
              A 
    DOCC [    10 ]
    NA   [    10 ]
    NB   [    10 ]

  @DF-RKS Final Energy:  -152.86254018717645

   => Energetics <=

    Nuclear Repulsion Energy =             27.7236259482581957
    One-Electron Energy =                -264.8264536095667836
    Two-Electron Energy =                 102.8260360241125682
    DFT Exchange-Correlation Energy =     -18.5857138499804293
    Empirical Dispersion Energy =          -0.0000347000000000
    VV10 Nonlocal Energy =                  0.0000000000000000
    Total Energy =                       -152.8625401871764495

Computation Completed


[...]
    DFT Exchange-Correlation Energy =      -9.2848748199456441
    Empirical Dispersion Energy =          -0.0000001500000000
    VV10 Nonlocal Energy =                  0.0000000000000000
    Total Energy =                        -76.4308373124139138

Computation Completed


Properties will be evaluated at   0.000000,   0.000000,   0.000000 [a0]

Properties computed using the SCF density matrix


 Multipole Moments:

 ------------------------------------------------------------------------------------
     Multipole            Electronic (a.u.)      Nuclear  (a.u.)        Total (a.u.)
 ------------------------------------------------------------------------------------

 L = 1.  Multiply by 2.5417464519 to convert [e a0] to [Debye]
 Dipole X            :        -10.1671591           10.3696730            0.2025139
 Dipole Y            :         46.9286031          -46.5102467            0.4183564
 Dipole Z            :         38.1945691          -37.6554876            0.5390815
 Magnitude           :                                                    0.7117885

 ------------------------------------------------------------------------------------

*** tstop() called on d-19-15-2 at Sun Sep 17 12:57:22 2023
Module time:
	user time   =      21.72 seconds =       0.36 minutes
	system time =       0.10 seconds =       0.00 minutes
	total time  =         22 seconds =       0.37 minutes
Total time:
	user time   =     529.73 seconds =       8.83 minutes
	system time =       3.51 seconds =       0.06 minutes
	total time  =        538 seconds =       8.97 minutes

    Psi4 stopped on: Sunday, 17 September 2023 12:57PM
    Psi4 wall time for execution: 0:00:21.94


    -----------------------------------------------------------------------
          Psi4: An Open-Source Ab Initio Electronic Structure Package
                               Psi4 1.7 release

                         Git: Rev {HEAD} 6ce35a5 


    D. G. A. Smith, L. A. Burns, A. C. Simmonett, R. M. Parrish,
    M. C. Schieber, R. Galvelis, P. Kraus, H. Kruse, R. Di Remigio,
    A. Alenaizan, A. M. James, S. Lehtola, J. P. Misiewicz, M. Scheurer,
    R. A. Shaw, J. B. Schriber, Y. Xie, Z. L. Glick, D. A. Sirianni,
    J. S. O'Brien, J. M. Waldrop, A. Kumar, E. G. Hohenstein,
    B. P. Pritchard, B. R. Brooks, H. F. Schaefer III, A. Yu. Sokolov,
    K. Patkowski, A. E. DePrince III, U. Bozkaya, R. A. King,
    F. A. Evangelista, J. M. Turney, T. D. Crawford, C. D. Sherrill,
    J. Chem. Phys. 152(18) 184108 (2020). https://doi.org/10.1063/5.0006002

                            Additional Code Authors
    E. T. Seidl, C. L. Janssen, E. F. Valeev, M. L. Leininger,
    J. F. Gonthier, R. M. Richard, H. R. McAlexander, M. Saitow, X. Wang,
    P. Verma, M. H. Lechner, A. Jiang, S. Behnle, A. G. Heide,
    M. F. Herbst, and D. L. Poole

             Previous Authors, Complete List of Code Contributors,
                       and Citations for Specific Modules
    https://github.com/psi4/psi4/blob/master/codemeta.json
    https://github.com/psi4/psi4/graphs/contributors
    http://psicode.org/psi4manual/master/introduction.html#citing-psifour

    -----------------------------------------------------------------------


    Psi4 started on: Sunday, 17 September 2023 12:48PM

    Process ID: 258105
    Host:       d-19-15-2
    PSIDATADIR: /home/gridsan/kfisher/.conda/envs/p4env/share/psi4
    Memory:     18.6 GiB
    Threads:    1
    
  ==> Input QCSchema <==

--------------------------------------------------------------------------
{'driver': 'energy',
 'extras': {'psiapi': True, 'wfn_qcvars_only': True},
 'id': None,
 'keywords': {'D_CONVERGENCE': 1e-10, 'E_CONVERGENCE': 1e-10, 'function_kwargs': {'dft_functional': 'scan-d3zero2b'}},
 'model': {'basis': 'aug-cc-pvtz', 'method': 'scf'},
 'molecule': {'atom_labels': ['', '', '', '', '', ''],
              'atomic_numbers': [1, 1, 8, 1, 1, 8],
              'fix_com': True,
              'fix_orientation': True,
              'fix_symmetry': 'c1',
              'fragment_charges': [0.0, 0.0],
              'fragment_multiplicities': [1, 1],
              'fragments': [[0, 1, 2], [3, 4, 5]],
              'geometry': [2.683563939199143, -4.274727188527134, -3.5375706516722962, -0.11444670854839101,
                           -3.992038295310061, -2.6573496016950084, 0.9750694655703398, -4.780435152899174,
                           -3.9325709196077763, 0.15146296625003902, -11.365354041579403, -3.14658282032174,
                           -0.06978503468288823, -8.596905154400119, -2.7013614365404885, -0.47558735509671035,
                           -10.209960861994276, -1.9014999884934483],
              'mass_numbers': [1, 1, 16, 1, 1, 16],
              'masses': [1.00782503223, 1.00782503223, 15.99491461957, 1.00782503223, 1.00782503223, 15.99491461957],
              'molecular_charge': 0.0,
              'molecular_multiplicity': 1,
              'name': 'H4O2',
              'provenance': {'creator': 'QCElemental',
                             'routine': 'qcelemental.molparse.from_string',
                             'version': 'v0.25.1'},
              'real': [True, True, True, True, True, True],
              'schema_name': 'qcschema_molecule',
              'schema_version': 2,
              'symbols': ['H', 'H', 'O', 'H', 'H', 'O'],
              'validated': True},
 'protocols': {'stdout': True},
 'provenance': {'creator': 'QCElemental', 'routine': 'qcelemental.models.results', 'version': 'v0.25.1'},
 'schema_name': 'qcschema_input',
 'schema_version': 1}
--------------------------------------------------------------------------

Scratch directory: /home/gridsan/kfisher/scratch/

*** tstart() called on d-19-15-2
*** at Sun Sep 17 12:57:22 2023

   => Loading Basis Set <=

    Name: AUG-CC-PVTZ
    Role: ORBITAL
    Keyword: BASIS
    atoms 1-2, 4-5 entry H          line    40 file /home/gridsan/kfisher/.conda/envs/p4env/share/psi4/basis/aug-cc-pvtz.gbs 
    atoms 3, 6     entry O          line   331 file /home/gridsan/kfisher/.conda/envs/p4env/share/psi4/basis/aug-cc-pvtz.gbs 

   => SCAN-D3: Empirical Dispersion <=

    Grimme's -D3 (zero-damping) Dispersion Correction
    Grimme S.; Antony J.; Ehrlich S.; Krieg H. (2010), J. Chem. Phys., 132: 154104
    Parametrisation from:    J.G. Brandenburg, J. E. Bates, J. Sun, J.P. Perdew, Phys. Rev. B 94, 115144, 2016

        s6 =       1.000000
        s8 =       0.000000
       sr6 =       1.324000
    alpha6 =      14.000000
       sr8 =       1.000000


         ---------------------------------------------------------
                                   SCF
               by Justin Turney, Rob Parrish, Andy Simmonett
                          and Daniel G. A. Smith
                              RKS Reference
                        1 Threads,  19073 MiB Core
         ---------------------------------------------------------

  ==> Geometry <==

    Molecular point group: c1
    Full point group: C1

    Geometry (in Bohr), charge = 0, multiplicity = 1:

       Center              X                  Y                   Z               Mass       
    ------------   -----------------  -----------------  -----------------  -----------------
         H            2.683563939199    -4.274727188527    -3.537570651672     1.007825032230
         H           -0.114446708548    -3.992038295310    -2.657349601695     1.007825032230
         O            0.975069465570    -4.780435152899    -3.932570919608    15.994914619570
         H            0.151462966250   -11.365354041579    -3.146582820322     1.007825032230
         H           -0.069785034683    -8.596905154400    -2.701361436540     1.007825032230
         O           -0.475587355097   -10.209960861994    -1.901499988493    15.994914619570

  Running in c1 symmetry.

  Rotational constants: A =      0.42119  B =      0.02407  C =      0.02283 [cm^-1]
  Rotational constants: A =  12627.03120  B =    721.71726  C =    684.31895 [MHz]
  Nuclear repulsion =   35.094238876795686

  Charge       = 0
  Multiplicity = 1
  Electrons    = 20
  Nalpha       = 10
  Nbeta        = 10

  ==> Algorithm <==

  SCF Algorithm Type is DF.
  DIIS enabled.
  MOM disabled.
  Fractional occupation disabled.
  Guess Type is SAD.
  Energy threshold   = 1.00e-10
  Density threshold  = 1.00e-10
  Integral threshold = 1.00e-12

  ==> Primary Basis <==

  Basis Set: AUG-CC-PVTZ
    Blend: AUG-CC-PVTZ
    Number of shells: 64
    Number of basis functions: 184
    Number of Cartesian functions: 210
    Spherical Harmonics?: true
    Max angular momentum: 3

  ==> DFT Potential <==

   => Composite Functional: SCAN-D3ZERO2B <= 

    SCAN Meta-GGA XC Functional
(10.1103/PhysRevLett.115.036402)
    J. Sun, A. Ruzsinszky, J. P. Perdew  Phys. Rev. Lett. 115, 036402, 2015


    Deriv               =              1
    GGA                 =           TRUE
    Meta                =           TRUE

    Exchange Hybrid     =          FALSE
    MP2 Hybrid          =          FALSE

   => Exchange Functionals <=

    1.0000   XC_MGGA_X_SCAN

   => Correlation Functionals <=

    1.0000   XC_MGGA_C_SCAN

   => LibXC Density Thresholds  <==

    XC_MGGA_C_SCAN:  1.00E-15 
    XC_MGGA_X_SCAN:  1.00E-15 

   => Molecular Quadrature <=

    Radial Scheme          =       TREUTLER
    Pruning Scheme         =           NONE
    Nuclear Scheme         =       TREUTLER

    Blocking Scheme        =         OCTREE
    BS radius alpha        =              1
    Pruning alpha          =              1
    Radial Points          =             75
    Spherical Points       =            302
    Total Points           =         132531
    Total Blocks           =           1037
    Max Points             =            256
    Max Functions          =            184
    Weights Tolerance      =       1.00E-15

   => Loading Basis Set <=

    Name: (AUG-CC-PVTZ AUX)
    Role: JKFIT
    Keyword: DF_BASIS_SCF
    atoms 1-2, 4-5 entry H          line    70 file /home/gridsan/kfisher/.conda/envs/p4env/share/psi4/basis/aug-cc-pvtz-jkfit.gbs 
    atoms 3, 6     entry O          line   286 file /home/gridsan/kfisher/.conda/envs/p4env/share/psi4/basis/aug-cc-pvtz-jkfit.gbs 

  ==> Integral Setup <==

  DFHelper Memory: AOs need 0.105 GiB; user supplied 12.485 GiB. Using in-core AOs.

  ==> MemDFJK: Density-Fitted J/K Matrices <==

    J tasked:                   Yes
    K tasked:                    No
    wK tasked:                   No
    OpenMP threads:               1
    Memory [MiB]:             12784
    Algorithm:                 Core
    Schwarz Cutoff:           1E-12
    Mask sparsity (%):       2.2625
    Fitting Condition:        1E-10

   => Auxiliary Basis Set <=

  Basis Set: (AUG-CC-PVTZ AUX)
    Blend: AUG-CC-PVTZ-JKFIT
    Number of shells: 116
    Number of basis functions: 392
    Number of Cartesian functions: 482
    Spherical Harmonics?: true
    Max angular momentum: 4

  Cached 100.0% of DFT collocation blocks in 1.485 [GiB].

  Minimum eigenvalue in the overlap matrix is 2.2880993501E-04.
  Reciprocal condition number of the overlap matrix is 2.5982862227E-05.
    Using symmetric orthogonalization.

  ==> Pre-Iterations <==

  SCF Guess: Superposition of Atomic Densities via on-the-fly atomic UHF (no occupation information).

   -------------------------
    Irrep   Nso     Nmo    
   -------------------------
     A        184     184 
   -------------------------
    Total     184     184
   -------------------------

  ==> Iterations <==

                           Total Energy        Delta E     RMS |[F,P]|

   @DF-RKS iter SAD:  -152.15055092644357   -1.52151e+02   0.00000e+00 
   @DF-RKS iter   1:  -152.51117174861264   -3.60621e-01   5.51332e-03 DIIS/ADIIS
   @DF-RKS iter   2:  -151.53292895991149    9.78243e-01   1.00102e-02 DIIS/ADIIS
   @DF-RKS iter   3:  -152.86725550965218   -1.33433e+00   3.42797e-04 DIIS/ADIIS
   @DF-RKS iter   4:  -152.86873126452491   -1.47575e-03   1.73468e-04 DIIS/ADIIS
   @DF-RKS iter   5:  -152.86898081645938   -2.49552e-04   9.19797e-05 DIIS
   @DF-RKS iter   6:  -152.86907792924268   -9.71128e-05   1.15491e-05 DIIS
   @DF-RKS iter   7:  -152.86907959411354   -1.66487e-06   1.22997e-06 DIIS
   @DF-RKS iter   8:  -152.86907961249614   -1.83826e-08   3.25506e-07 DIIS
   @DF-RKS iter   9:  -152.86907961391017   -1.41404e-09   4.24448e-08 DIIS
   @DF-RKS iter  10:  -152.86907961393467   -2.44995e-11   4.09556e-09 DIIS
   @DF-RKS iter  11:  -152.86907961393490   -2.27374e-13   8.60430e-10 DIIS
   @DF-RKS iter  12:  -152.86907961393490    0.00000e+00   1.44467e-10 DIIS
   @DF-RKS iter  13:  -152.86907961393501   -1.13687e-13   2.52522e-11 DIIS
  Energy and wave function converged.


  ==> Post-Iterations <==

   Electrons on quadrature grid:
      Ntotal   =   20.0000003872 ; deviation = 3.872e-07 

    Orbital Energies [Eh]
    ---------------------

    Doubly Occupied:                                                      

       1A    -18.991837     2A    -18.949642     3A     -0.997879  
       4A     -0.961499     5A     -0.520528     6A     -0.471100  
       7A     -0.378071     8A     -0.346308     9A     -0.301176  
      10A     -0.261922  

    Virtual:                                                              

      11A     -0.023773    12A      0.015930    13A      0.028326  
      14A      0.056311    15A      0.080437    16A      0.088781  
      17A      0.104324    18A      0.115127    19A      0.128333  
      20A      0.142661    21A      0.159208    22A      0.164605  
      23A      0.172890    24A      0.175750    25A      0.198772  
      26A      0.214769    27A      0.229719    28A      0.250325  
      29A      0.271921    30A      0.299248    31A      0.314360  
      32A      0.328956    33A      0.333697    34A      0.348874  
      35A      0.353574    36A      0.367307    37A      0.376912  
      38A      0.488046    39A      0.507266    40A      0.513662  
      41A      0.537426    42A      0.597168    43A      0.599504  
      44A      0.627981    45A      0.638675    46A      0.650655  
      47A      0.659200    48A      0.665841    49A      0.703257  
      50A      0.741349    51A      0.749909    52A      0.766396  
      53A      0.797512    54A      0.811340    55A      0.819550  
      56A      0.842671    57A      0.858435    58A      0.863229  
      59A      0.874521    60A      0.896565    61A      0.905338  
      62A      0.938793    63A      0.948118    64A      0.951694  
      65A      0.979563    66A      1.025049    67A      1.049369  
      68A      1.060439    69A      1.077320    70A      1.101159  
      71A      1.124123    72A      1.153546    73A      1.165255  
      74A      1.182085    75A      1.228858    76A      1.258769  
      77A      1.362383    78A      1.372704    79A      1.412560  
      80A      1.428001    81A      1.471895    82A      1.482560  
      83A      1.533270    84A      1.592308    85A      1.655010  
      86A      1.667178    87A      1.763399    88A      1.793398  
      89A      1.856966    90A      1.906159    91A      1.961737  
      92A      2.054144    93A      2.095551    94A      2.132701  
      95A      2.151810    96A      2.188507    97A      2.208926  
      98A      2.221938    99A      2.229341   100A      2.296380  
     101A      2.304209   102A      2.319637   103A      2.349866  
     104A      2.415398   105A      2.478951   106A      2.497152  
     107A      2.527473   108A      2.557988   109A      2.580555  
     110A      2.595810   111A      2.647593   112A      2.687851  
     113A      2.716389   114A      2.741049   115A      2.806643  
     116A      2.815162   117A      3.500171   118A      3.557719  
     119A      3.575604   120A      3.739676   121A      3.814024  
     122A      3.891829   123A      3.930732   124A      3.984229  
     125A      4.039490   126A      4.102863   127A      4.125828  
     128A      4.144577   129A      4.166919   130A      4.243743  
     131A      4.264887   132A      4.275614   133A      4.282737  
     134A      4.310626   135A      4.334101   136A      4.394489  
     137A      4.448642   138A      4.463264   139A      4.472788  
     140A      4.568798   141A      4.644490   142A      4.763298  
     143A      4.971879   144A      5.013819   145A      5.032600  
     146A      5.081197   147A      5.114939   148A      5.126134  
     149A      5.149387   150A      5.216790   151A      5.300230  
     152A      5.370739   153A      5.483674   154A      5.546089  
     155A      5.918847   156A      5.993683   157A      6.254072  
     158A      6.268981   159A      6.437905   160A      6.464267  
     161A      6.602317   162A      6.717733   163A      6.843424  
     164A      6.895658   165A      6.902773   166A      6.920085  
     167A      6.956904   168A      6.966476   169A      6.996100  
     170A      7.030860   171A      7.033452   172A      7.041501  
     173A      7.087309   174A      7.118285   175A      7.208063  
     176A      7.350028   177A      7.591401   178A      7.606017  
     179A      7.663269   180A      7.716598   181A      8.480205  
     182A      8.562230   183A     14.885019   184A     15.772938  

    Final Occupation by Irrep:
              A 
    DOCC [    10 ]
    NA   [    10 ]
    NB   [    10 ]

  @DF-RKS Final Energy:  -152.86907961393501

   => Energetics <=

    Nuclear Repulsion Energy =             35.0942388767956857
    One-Electron Energy =                -279.5445162484065804
    Two-Electron Energy =                 110.1643670414405847
    DFT Exchange-Correlation Energy =     -18.5829594737647135
    Empirical Dispersion Energy =          -0.0002098100000000
    VV10 Nonlocal Energy =                  0.0000000000000000
    Total Energy =                       -152.8690796139350141

Computation Completed


Properties will be evaluated at   0.000000,   0.000000,   0.000000 [a0]

Properties computed using the SCF density matrix


 Multipole Moments:

 ------------------------------------------------------------------------------------
     Multipole            Electronic (a.u.)      Nuclear  (a.u.)        Total (a.u.)
 ------------------------------------------------------------------------------------

 L = 1.  Multiply by 2.5417464519 to convert [e a0] to [Debye]
 Dipole X            :         -6.0659715            6.6466520            0.5806805
 Dipole Y            :        148.8902809         -148.1521928            0.7380881
 Dipole Z            :         58.5521718          -58.7154318           -0.1632600
 Magnitude           :                                                    0.9532145

 ------------------------------------------------------------------------------------

*** tstop() called on d-19-15-2 at Sun Sep 17 12:57:47 2023
Module time:
	user time   =      24.96 seconds =       0.42 minutes
	system time =       0.07 seconds =       0.00 minutes
	total time  =         25 seconds =       0.42 minutes
Total time:
	user time   =     554.75 seconds =       9.25 minutes
	system time =       3.58 seconds =       0.06 minutes
	total time  =        563 seconds =       9.38 minutes

    Psi4 stopped on: Sunday, 17 September 2023 12:57PM
    Psi4 wall time for execution: 0:00:25.16


  //>>>>>>>>>>>>>>>>>>>>>>>>>>>>>>>>>>>//
  //          ManyBody Results         //
  //<<<<<<<<<<<<<<<<<<<<<<<<<<<<<<<<<<<//


   ==> N-Body: Counterpoise Corrected (CP) energies <==

        n-Body     Total Energy            Interaction Energy                          N-body Contribution to Interaction Energy
                   [Eh]                    [Eh]                  [kcal/mol]            [Eh]                  [kcal/mol]
             1  N/A                         0.000000000000        0.000000000000        0.000000000000        0.000000000000
  FULL/RTN   2  N/A                        -0.007454567311       -4.677811610467       -0.007454567311       -4.677811610467



