Scratch directory: /home/gridsan/kfisher/scratch/

  //>>>>>>>>>>>>>>>>>>>>>>>>>>>>>>>>>>>>>>>>//
  // ManyBody Setup: N-Body Levels [1, 2, 3]//
  //<<<<<<<<<<<<<<<<<<<<<<<<<<<<<<<<<<<<<<<<//

        Number of 1-body computations:     3
        Number of 2-body computations:     3
        Number of 3-body computations:     1

    -----------------------------------------------------------------------
          Psi4: An Open-Source Ab Initio Electronic Structure Package
                               Psi4 1.7 release

                         Git: Rev {HEAD} 6ce35a5 


    D. G. A. Smith, L. A. Burns, A. C. Simmonett, R. M. Parrish,
    M. C. Schieber, R. Galvelis, P. Kraus, H. Kruse, R. Di Remigio,
    A. Alenaizan, A. M. James, S. Lehtola, J. P. Misiewicz, M. Scheurer,
    R. A. Shaw, J. B. Schriber, Y. Xie, Z. L. Glick, D. A. Sirianni,
    J. S. O'Brien, J. M. Waldrop, A. Kumar, E. G. Hohenstein,
    B. P. Pritchard, B. R. Brooks, H. F. Schaefer III, A. Yu. Sokolov,
    K. Patkowski, A. E. DePrince III, U. Bozkaya, R. A. King,
    F. A. Evangelista, J. M. Turney, T. D. Crawford, C. D. Sherrill,
    J. Chem. Phys. 152(18) 184108 (2020). https://doi.org/10.1063/5.0006002

                            Additional Code Authors
    E. T. Seidl, C. L. Janssen, E. F. Valeev, M. L. Leininger,
    J. F. Gonthier, R. M. Richard, H. R. McAlexander, M. Saitow, X. Wang,
    P. Verma, M. H. Lechner, A. Jiang, S. Behnle, A. G. Heide,
    M. F. Herbst, and D. L. Poole

             Previous Authors, Complete List of Code Contributors,
                       and Citations for Specific Modules
    https://github.com/psi4/psi4/blob/master/codemeta.json
    https://github.com/psi4/psi4/graphs/contributors
    http://psicode.org/psi4manual/master/introduction.html#citing-psifour

    -----------------------------------------------------------------------


    Psi4 started on: Sunday, 17 September 2023 12:48PM

    Process ID: 258105
    Host:       d-19-15-2
    PSIDATADIR: /home/gridsan/kfisher/.conda/envs/p4env/share/psi4
    Memory:     18.6 GiB
    Threads:    1
    
  ==> Input QCSchema <==

--------------------------------------------------------------------------
{'driver': 'energy',
 'extras': {'psiapi': True, 'wfn_qcvars_only': True},
 'id': None,
 'keywords': {'D_CONVERGENCE': 1e-10, 'E_CONVERGENCE': 1e-10, 'function_kwargs': {}},
 'model': {'basis': 'aug-cc-pvtz', 'method': 'ccsd(t)'},
 'molecule': {'atom_labels': ['', '', '', '', '', '', '', '', ''],
              'atomic_numbers': [1, 1, 8, 1, 1, 8, 1, 1, 8],
              'fix_com': True,
              'fix_orientation': True,
              'fix_symmetry': 'c1',
              'fragment_charges': [0.0, 0.0, 0.0],
              'fragment_multiplicities': [1, 1, 1],
              'fragments': [[0, 1, 2], [3, 4, 5], [6, 7, 8]],
              'geometry': [4.601144589951697, -0.40663134326506045, -2.508494419703579, 7.305579647137981,
                           -0.98300612632465, -1.786005899240022, 5.731917850656521, -1.8018394609109631,
                           -2.208342283902231, 2.683563939199143, -4.274727188527134, -3.5375706516722962,
                           -0.11444670854839101, -3.992038295310061, -2.6573496016950084, 0.9750694655703398,
                           -4.780435152899174, -3.9325709196077763, 0.15146296625003902, -11.365354041579403,
                           -3.14658282032174, -0.06978503468288823, -8.596905154400119, -2.7013614365404885,
                           -0.47558735509671035, -10.209960861994276, -1.9014999884934483],
              'mass_numbers': [1, 1, 16, 1, 1, 16, 1, 1, 16],
              'masses': [1.00782503223, 1.00782503223, 15.99491461957, 1.00782503223, 1.00782503223, 15.99491461957,
                         1.00782503223, 1.00782503223, 15.99491461957],
              'molecular_charge': 0.0,
              'molecular_multiplicity': 1,
              'name': 'H6O3',
              'provenance': {'creator': 'QCElemental',
                             'routine': 'qcelemental.molparse.from_string',
                             'version': 'v0.25.1'},
              'real': [True, True, True, False, False, False, False, False, False],
              'schema_name': 'qcschema_molecule',
              'schema_version': 2,
              'symbols': ['H', 'H', 'O', 'H', 'H', 'O', 'H', 'H', 'O'],
              'validated': True},
 'protocols': {'stdout': True},
 'provenance': {'creator': 'QCElemental', 'routine': 'qcelemental.models.results', 'version': 'v0.25.1'},
 'schema_name': 'qcschema_input',
 'schema_version': 1}
--------------------------------------------------------------------------

Scratch directory: /home/gridsan/kfisher/scratch/

*** tstart() called on d-19-15-2
*** at Sun Sep 17 12:57:48 2023

   => Loading Basis Set <=

    Name: AUG-CC-PVTZ
    Role: ORBITAL
    Keyword: BASIS
    atoms 1-2, 4-5, 7-8 entry H          line    40 file /home/gridsan/kfisher/.conda/envs/p4env/share/psi4/basis/aug-cc-pvtz.gbs 
    atoms 3, 6, 9       entry O          line   331 file /home/gridsan/kfisher/.conda/envs/p4env/share/psi4/basis/aug-cc-pvtz.gbs 


         ---------------------------------------------------------
                                   SCF
               by Justin Turney, Rob Parrish, Andy Simmonett
                          and Daniel G. A. Smith
                              RHF Reference
                        1 Threads,  19073 MiB Core
         ---------------------------------------------------------

  ==> Geometry <==

    Molecular point group: c1
    Full point group: C1

    Geometry (in Bohr), charge = 0, multiplicity = 1:

       Center              X                  Y                   Z               Mass       
    ------------   -----------------  -----------------  -----------------  -----------------
         H            4.601144589952    -0.406631343265    -2.508494419704     1.007825032230
         H            7.305579647138    -0.983006126325    -1.786005899240     1.007825032230
         O            5.731917850657    -1.801839460911    -2.208342283902    15.994914619570
      Gh(H)           2.683563939199    -4.274727188527    -3.537570651672     1.007825032230
      Gh(H)          -0.114446708548    -3.992038295310    -2.657349601695     1.007825032230
      Gh(O)           0.975069465570    -4.780435152899    -3.932570919608    15.994914619570
      Gh(H)           0.151462966250   -11.365354041579    -3.146582820322     1.007825032230
      Gh(H)          -0.069785034683    -8.596905154400    -2.701361436540     1.007825032230
      Gh(O)          -0.475587355097   -10.209960861994    -1.901499988493    15.994914619570

  Running in c1 symmetry.

  Rotational constants: A =      0.08010  B =      0.02222  C =      0.01823 [cm^-1]
  Rotational constants: A =   2401.26552  B =    666.24782  C =    546.39975 [MHz]
  Nuclear repulsion =    9.130638043424117

  Charge       = 0
  Multiplicity = 1
  Electrons    = 10
  Nalpha       = 5
  Nbeta        = 5

  ==> Algorithm <==

  SCF Algorithm Type is PK.
  DIIS enabled.
  MOM disabled.
  Fractional occupation disabled.
  Guess Type is SAD.
  Energy threshold   = 1.00e-10
  Density threshold  = 1.00e-10
  Integral threshold = 1.00e-12

  ==> Primary Basis <==

  Basis Set: AUG-CC-PVTZ
    Blend: AUG-CC-PVTZ
    Number of shells: 96
    Number of basis functions: 276
    Number of Cartesian functions: 315
    Spherical Harmonics?: true
    Max angular momentum: 3

  ==> Integral Setup <==

  Using in-core PK algorithm.
   Calculation information:
      Number of atoms:                   9
      Number of AO shells:              96
      Number of primitives:            156
      Number of atomic orbitals:       315
      Number of basis functions:       276

      Integral cutoff                 1.00e-12
      Number of threads:                 1

  Performing in-core PK
  Using 1461265302 doubles for integral storage.
  We computed 8708478 shell quartets total.
  Whereas there are 10841496 unique shell quartets.

  ==> DiskJK: Disk-Based J/K Matrices <==

    J tasked:                  Yes
    K tasked:                  Yes
    wK tasked:                  No
    Memory [MiB]:            14305
    Schwarz Cutoff:          1E-12

    OpenMP threads:              1

  Minimum eigenvalue in the overlap matrix is 1.7737457904E-04.
  Reciprocal condition number of the overlap matrix is 1.8322782708E-05.
    Using symmetric orthogonalization.

  ==> Pre-Iterations <==

  SCF Guess: Superposition of Atomic Densities via on-the-fly atomic UHF (no occupation information).

   -------------------------
    Irrep   Nso     Nmo    
   -------------------------
     A        276     276 
   -------------------------
    Total     276     276
   -------------------------

  ==> Iterations <==

                        Total Energy        Delta E     RMS |[F,P]|

   @RHF iter SAD:   -75.47122473643726   -7.54712e+01   0.00000e+00 
   @RHF iter   1:   -75.97532933569397   -5.04105e-01   1.69597e-03 DIIS/ADIIS
   @RHF iter   2:   -76.02769952954178   -5.23702e-02   1.16351e-03 DIIS/ADIIS
   @RHF iter   3:   -76.05957821987333   -3.18787e-02   7.91741e-05 DIIS
   @RHF iter   4:   -76.05997370471260   -3.95485e-04   1.90974e-05 DIIS
   @RHF iter   5:   -76.05999902515057   -2.53204e-05   4.37605e-06 DIIS
   @RHF iter   6:   -76.06000111912653   -2.09398e-06   9.55035e-07 DIIS
   @RHF iter   7:   -76.06000122824945   -1.09123e-07   1.69499e-07 DIIS
   @RHF iter   8:   -76.06000123125263   -3.00318e-09   2.84782e-08 DIIS
   @RHF iter   9:   -76.06000123131925   -6.66205e-11   7.02244e-09 DIIS
   @RHF iter  10:   -76.06000123132337   -4.12115e-12   1.04504e-09 DIIS
   @RHF iter  11:   -76.06000123132368   -3.12639e-13   1.59078e-10 DIIS
   @RHF iter  12:   -76.06000123132348    1.98952e-13   2.76703e-11 DIIS
  Energy and wave function converged.


  ==> Post-Iterations <==

    Orbital Energies [Eh]
    ---------------------

    Doubly Occupied:                                                      

       1A    -20.568905     2A     -1.350835     3A     -0.711628  
       4A     -0.585965     5A     -0.510105  

    Virtual:                                                              

       6A      0.024580     7A      0.036546     8A      0.044524  
       9A      0.060173    10A      0.066509    11A      0.081465  
      12A      0.112309    13A      0.129354    14A      0.139574  
      15A      0.151432    16A      0.159196    17A      0.162877  
      18A      0.175112    19A      0.188096    20A      0.189226  
      21A      0.197852    22A      0.214972    23A      0.233754  
      24A      0.257306    25A      0.266105    26A      0.277636  
      27A      0.295650    28A      0.297190    29A      0.305212  
      30A      0.311086    31A      0.326288    32A      0.338474  
      33A      0.345413    34A      0.365422    35A      0.370020  
      36A      0.381869    37A      0.388540    38A      0.401817  
      39A      0.422034    40A      0.429983    41A      0.447755  
      42A      0.450861    43A      0.467708    44A      0.474720  
      45A      0.482926    46A      0.539822    47A      0.574241  
      48A      0.621631    49A      0.655237    50A      0.683108  
      51A      0.698291    52A      0.715485    53A      0.726554  
      54A      0.756617    55A      0.767027    56A      0.775433  
      57A      0.786203    58A      0.797689    59A      0.804325  
      60A      0.822447    61A      0.824108    62A      0.834583  
      63A      0.850637    64A      0.851918    65A      0.865846  
      66A      0.872358    67A      0.880647    68A      0.898633  
      69A      0.901860    70A      0.909065    71A      0.922418  
      72A      0.937161    73A      0.943538    74A      0.955565  
      75A      0.976377    76A      0.986899    77A      0.989987  
      78A      1.003158    79A      1.012876    80A      1.022212  
      81A      1.030431    82A      1.044859    83A      1.053587  
      84A      1.060590    85A      1.076070    86A      1.103153  
      87A      1.110385    88A      1.117490    89A      1.136899  
      90A      1.161273    91A      1.182067    92A      1.192794  
      93A      1.229786    94A      1.243950    95A      1.256771  
      96A      1.261058    97A      1.292822    98A      1.322284  
      99A      1.333006   100A      1.377768   101A      1.396145  
     102A      1.426740   103A      1.439573   104A      1.505413  
     105A      1.531475   106A      1.555035   107A      1.571344  
     108A      1.615833   109A      1.653530   110A      1.658685  
     111A      1.697283   112A      1.714926   113A      1.723408  
     114A      1.758441   115A      1.801833   116A      1.819306  
     117A      1.833513   118A      1.853103   119A      1.860321  
     120A      1.869236   121A      1.914245   122A      1.942346  
     123A      1.987071   124A      2.021756   125A      2.049128  
     126A      2.114351   127A      2.225048   128A      2.265988  
     129A      2.300596   130A      2.363172   131A      2.423623  
     132A      2.439258   133A      2.453663   134A      2.464918  
     135A      2.471999   136A      2.506900   137A      2.524899  
     138A      2.537091   139A      2.558455   140A      2.565019  
     141A      2.590942   142A      2.605204   143A      2.611845  
     144A      2.623785   145A      2.641721   146A      2.683900  
     147A      2.718399   148A      2.749876   149A      2.780090  
     150A      2.804908   151A      2.824087   152A      2.843739  
     153A      2.882743   154A      2.918456   155A      2.941468  
     156A      3.000667   157A      3.062865   158A      3.081891  
     159A      3.174400   160A      3.212314   161A      3.219112  
     162A      3.287423   163A      3.309791   164A      3.390256  
     165A      3.400240   166A      3.420004   167A      3.475311  
     168A      3.555914   169A      3.587388   170A      3.678309  
     171A      3.716782   172A      3.762183   173A      3.847823  
     174A      3.987778   175A      4.053692   176A      4.117702  
     177A      4.192055   178A      4.303449   179A      4.352507  
     180A      4.386892   181A      4.398043   182A      4.422696  
     183A      4.458771   184A      4.471091   185A      4.506013  
     186A      4.549001   187A      4.560110   188A      4.569196  
     189A      4.607891   190A      4.621683   191A      4.664576  
     192A      4.674586   193A      4.750135   194A      4.765563  
     195A      4.846451   196A      4.872020   197A      4.877650  
     198A      4.916717   199A      4.920814   200A      4.956110  
     201A      5.009315   202A      5.067384   203A      5.145230  
     204A      5.189997   205A      5.224074   206A      5.289793  
     207A      5.330164   208A      5.355774   209A      5.419102  
     210A      5.533586   211A      5.563503   212A      5.582502  
     213A      5.602030   214A      5.613619   215A      5.653423  
     216A      5.743215   217A      5.755635   218A      5.888080  
     219A      5.919471   220A      6.131713   221A      6.233655  
     222A      6.313200   223A      6.391675   224A      6.416556  
     225A      6.618190   226A      6.626610   227A      6.690803  
     228A      6.733508   229A      6.979228   230A      7.060130  
     231A      7.123806   232A      7.143888   233A      7.293870  
     234A      7.301527   235A      7.323382   236A      7.384315  
     237A      7.430088   238A      7.684823   239A      7.691010  
     240A      7.769644   241A      7.876624   242A      7.898748  
     243A      7.907431   244A      7.959431   245A      8.026687  
     246A      8.128020   247A      8.160067   248A      8.261032  
     249A      8.293470   250A      8.313955   251A      8.749741  
     252A      8.798696   253A      8.883957   254A      8.910994  
     255A      8.961948   256A      9.649612   257A      9.826581  
     258A      9.868211   259A      9.971502   260A     10.057873  
     261A     10.141560   262A     10.326583   263A     10.335584  
     264A     11.158182   265A     11.241405   266A     11.686838  
     267A     11.885161   268A     12.055515   269A     12.269695  
     270A     13.586008   271A     13.610093   272A     13.959868  
     273A     13.989208   274A     15.777487   275A     65.339746  
     276A     66.535758  

    Final Occupation by Irrep:
              A 
    DOCC [     5 ]
    NA   [     5 ]
    NB   [     5 ]

  @RHF Final Energy:   -76.06000123132348

   => Energetics <=

    Nuclear Repulsion Energy =              9.1306380434241170
    One-Electron Energy =                -122.9264035884148143
    Two-Electron Energy =                  37.7357643136672252
    Total Energy =                        -76.0600012313234686

Computation Completed


Properties will be evaluated at   0.000000,   0.000000,   0.000000 [a0]

Properties computed using the SCF density matrix


 Multipole Moments:

 ------------------------------------------------------------------------------------
     Multipole            Electronic (a.u.)      Nuclear  (a.u.)        Total (a.u.)
 ------------------------------------------------------------------------------------

 L = 1.  Multiply by 2.5417464519 to convert [e a0] to [Debye]
 Dipole X            :        -57.6076717           57.7620670            0.1543953
 Dipole Y            :         16.5777838          -15.8043532            0.7734306
 Dipole Z            :         22.0039393          -21.9612386            0.0427007
 Magnitude           :                                                    0.7898457

 ------------------------------------------------------------------------------------

*** tstop() called on d-19-15-2 at Sun Sep 17 12:58:57 2023
Module time:
	user time   =      67.03 seconds =       1.12 minutes
	system time =       2.12 seconds =       0.04 minutes
	total time  =         69 seconds =       1.15 minutes
Total time:
	user time   =     621.95 seconds =      10.37 minutes
	system time =       5.70 seconds =       0.09 minutes
	total time  =        633 seconds =      10.55 minutes
 MINTS: Wrapper to libmints.
   by Justin Turney

   Calculation information:
      Number of threads:                 1
      Number of atoms:                   9
      Number of AO shells:              96
      Number of SO shells:              96
      Number of primitives:            156
      Number of atomic orbitals:       315
      Number of basis functions:       276

      Number of irreps:                  1
      Integral cutoff                 1.00e-12
      Number of functions per irrep: [ 276 ]

 OEINTS: Overlap, kinetic, potential, dipole, and quadrupole integrals
         stored in file 35.

      Computing two-electron integrals...done
      Computed 515711854 non-zero two-electron integrals.
        Stored in file 33.


*** tstart() called on d-19-15-2
*** at Sun Sep 17 12:59:53 2023


	Wfn Parameters:
	--------------------
	Wavefunction         = CCSD_T
	Number of irreps     = 1
	Number of MOs        = 276
	Number of active MOs = 276
	AO-Basis             = NONE
	Semicanonical        = false
	Reference            = RHF
	Print Level          = 1

	IRREP	# MOs	# FZDC	# DOCC	# SOCC	# VIRT	# FZVR
	-----	-----	------	------	------	------	------
	 A	   276	    0	    5	    0	    271	    0
	Transforming integrals...
	IWL integrals will be deleted.
	(OO|OO)...
	Presorting SO-basis two-electron integrals.
	Sorting File: SO Ints (nn|nn) nbuckets = 1
	Constructing frozen core operators
	Starting first half-transformation.
	Sorting half-transformed integrals.
	First half integral transformation complete.
	Starting second half-transformation.
	Two-electron integral transformation complete.
	(OO|OV)...
	Starting second half-transformation.
	Two-electron integral transformation complete.
	(OO|VV)...
	Starting second half-transformation.
	Two-electron integral transformation complete.
	(OV|OO)...
	Starting first half-transformation.
	Sorting half-transformed integrals.
	First half integral transformation complete.
	Starting second half-transformation.
	Two-electron integral transformation complete.
	(OV|OV)...
	Starting second half-transformation.
	Two-electron integral transformation complete.
	(OV|VV)...
	Starting second half-transformation.
	Two-electron integral transformation complete.
	(VV|OO)...
	Starting first half-transformation.
	Sorting half-transformed integrals.
	First half integral transformation complete.
	Starting second half-transformation.
	Two-electron integral transformation complete.
	(VV|OV)...
	Starting second half-transformation.
	Two-electron integral transformation complete.
	(VV|VV)...
	Starting second half-transformation.
	Two-electron integral transformation complete.
	Frozen core energy     =      0.00000000000000

	Size of irrep 0 of <ab|cd> integrals:   5393.580 (MW) /  43148.644 (MB)
	Total:                                  5393.580 (MW) /  43148.644 (MB)

	Size of irrep 0 of <ia|bc> integrals:     99.513 (MW) /    796.100 (MB)
	Total:                                    99.513 (MW) /    796.100 (MB)

	Size of irrep 0 of tijab amplitudes:       1.836 (MW) /     14.688 (MB)
	Total:                                     1.836 (MW) /     14.688 (MB)

	Nuclear Rep. energy          =      9.13063804342412
	SCF energy                   =    -76.06000123132348
	One-electron energy          =   -122.92640359683331
	Two-electron energy          =     37.73576432208579
	Reference energy             =    -76.06000123132341

*** tstop() called on d-19-15-2 at Sun Sep 17 13:22:52 2023
Module time:
	user time   =     535.95 seconds =       8.93 minutes
	system time =     412.78 seconds =       6.88 minutes
	total time  =       1379 seconds =      22.98 minutes
Total time:
	user time   =    1200.69 seconds =      20.01 minutes
	system time =     431.65 seconds =       7.19 minutes
	total time  =       2068 seconds =      34.47 minutes
            **************************
            *                        *
            *        CCENERGY        *
            *                        *
            **************************

    Nuclear Rep. energy (wfn)     =    9.130638043424117
    SCF energy          (wfn)     =  -76.060001231323483
    Reference energy    (file100) =  -76.060001231323412

    Input parameters:
    -----------------
    Wave function   =     CCSD_T
    Reference wfn   =     RHF
    Brueckner       =     No
    Memory (Mbytes) =     20000.0
    Maxiter         =     50
    R_Convergence   =     1.0e-07
    E_Convergence   =     1.0e-10
    Restart         =     Yes
    DIIS            =     Yes
    AO Basis        =     NONE
    ABCD            =     NEW
    Cache Level     =     2
    Cache Type      =     LOW
    Print Level     =     1
    Num. of threads =     1
    # Amps to Print =     10
    Print MP2 Amps? =     No
    Analyze T2 Amps =     No
    Print Pair Ener =     No
    Local CC        =     No
    SCS-MP2         =     False
    SCSN-MP2        =     False
    SCS-CCSD        =     False

MP2 correlation energy -0.2844572481630773
                Solving CC Amplitude Equations
                ------------------------------
  Iter             Energy              RMS        T1Diag      D1Diag    New D1Diag    D2Diag
  ----     ---------------------    ---------   ----------  ----------  ----------   --------
     0        -0.284457248163077    0.000e+00    0.000000    0.000000    0.000000    0.118256
     1        -0.282678333023444    3.561e-02    0.007631    0.017206    0.017206    0.120819
     2        -0.287743046386710    1.256e-02    0.007479    0.017008    0.017008    0.125317
     3        -0.289095514311112    4.907e-03    0.008675    0.020272    0.020272    0.127476
     4        -0.288962086886773    1.054e-03    0.008832    0.020744    0.020744    0.127655
     5        -0.288974513604879    3.880e-04    0.008918    0.021045    0.021045    0.127709
     6        -0.288980895797154    9.863e-05    0.008940    0.021128    0.021128    0.127705
     7        -0.288978922721070    3.419e-05    0.008944    0.021148    0.021148    0.127696
     8        -0.288978416360819    9.832e-06    0.008946    0.021154    0.021154    0.127694
     9        -0.288978528518738    3.634e-06    0.008946    0.021157    0.021157    0.127694
    10        -0.288978338213753    1.370e-06    0.008946    0.021157    0.021157    0.127694
    11        -0.288978336868367    4.394e-07    0.008946    0.021157    0.021157    0.127694
    12        -0.288978328995398    1.972e-07    0.008946    0.021157    0.021157    0.127694
    13        -0.288978325089953    7.398e-08    0.008946    0.021157    0.021157    0.127694
    14        -0.288978325070625    2.813e-08    0.008946    0.021157    0.021157    0.127694
    15        -0.288978325403219    1.006e-08    0.008946    0.021157    0.021157    0.127694

    Iterations converged.


    Largest TIA Amplitudes:
              4  12        -0.0110314202
              4   9        -0.0055407418
              3  15        -0.0055153646
              4  21         0.0053992941
              2 118        -0.0050652505
              4  24         0.0046932245
              4 170         0.0040604346
              3  22         0.0040357580
              4  26        -0.0039925011
              4   8         0.0039751805

    Largest TIjAb Amplitudes:
      2   2  37  37        -0.0174360912
      2   2  42  42        -0.0117021842
      3   3  42  42        -0.0105922907
      2   2  14  37        -0.0099048013
      2   2  37  14        -0.0099048013
      2   2  37  42        -0.0095394352
      2   2  42  37        -0.0095394352
      3   3  37  37        -0.0095068493
      2   2  37  76        -0.0085837057
      2   2  76  37        -0.0085837057

    SCF energy       (wfn)                    =  -76.060001231323483
    Reference energy (file100)                =  -76.060001231323412

    Opposite-spin MP2 correlation energy      =   -0.215955711158083
    Same-spin MP2 correlation energy          =   -0.068501537004995
    Singles MP2 correlation energy            =   -0.000000000000000
    MP2 correlation energy                    =   -0.284457248163077
      * MP2 total energy                      =  -76.344458479486491

    Opposite-spin CCSD correlation energy     =   -0.227950288631513
    Same-spin CCSD correlation energy         =   -0.061028036771707
    Singles CCSD correlation energy           =    0.000000000000000
    CCSD correlation energy                   =   -0.288978325403219
      * CCSD total energy                     =  -76.348979556726633

            **************************
            *                        *
            *        CCTRIPLES       *
            *                        *
            **************************


    Wave function   =    CCSD_T
    Reference wfn   =      RHF

    Nuclear Rep. energy (wfn)                =    9.130638043424117
    SCF energy          (wfn)                =  -76.060001231323483
    Reference energy    (file100)            =  -76.060001231323412
    CCSD energy         (file100)            =   -0.288978325403219
    Total CCSD energy   (file100)            =  -76.348979556726633

    Number of ijk index combinations:               35
    Memory available in words               :      2500000000
    Approx. words needed per explicit thread:        79610044
    Number of threads for explicit ijk threading:    1

    MKL num_threads set to 1 for explicit threading.

    (T) energy                                =   -0.008861213885054
      * CCSD(T) total energy                  =  -76.357840770611688


    Psi4 stopped on: Sunday, 17 September 2023 01:38PM
    Psi4 wall time for execution: 0:40:28.05


    -----------------------------------------------------------------------
          Psi4: An Open-Source Ab Initio Electronic Structure Package
                               Psi4 1.7 release

                         Git: Rev {HEAD} 6ce35a5 


    D. G. A. Smith, L. A. Burns, A. C. Simmonett, R. M. Parrish,
    M. C. Schieber, R. Galvelis, P. Kraus, H. Kruse, R. Di Remigio,
    A. Alenaizan, A. M. James, S. Lehtola, J. P. Misiewicz, M. Scheurer,
    R. A. Shaw, J. B. Schriber, Y. Xie, Z. L. Glick, D. A. Sirianni,
    J. S. O'Brien, J. M. Waldrop, A. Kumar, E. G. Hohenstein,
    B. P. Pritchard, B. R. Brooks, H. F. Schaefer III, A. Yu. Sokolov,
    K. Patkowski, A. E. DePrince III, U. Bozkaya, R. A. King,
    F. A. Evangelista, J. M. Turney, T. D. Crawford, C. D. Sherrill,
    J. Chem. Phys. 152(18) 184108 (2020). https://doi.org/10.1063/5.0006002

                            Additional Code Authors
    E. T. Seidl, C. L. Janssen, E. F. Valeev, M. L. Leininger,
    J. F. Gonthier, R. M. Richard, H. R. McAlexander, M. Saitow, X. Wang,
    P. Verma, M. H. Lechner, A. Jiang, S. Behnle, A. G. Heide,
    M. F. Herbst, and D. L. Poole

             Previous Authors, Complete List of Code Contributors,
                       and Citations for Specific Modules
    https://github.com/psi4/psi4/blob/master/codemeta.json
    https://github.com/psi4/psi4/graphs/contributors
    http://psicode.org/psi4manual/master/introduction.html#citing-psifour

    -----------------------------------------------------------------------


    Psi4 started on: Sunday, 17 September 2023 12:48PM

    Process ID: 258105
    Host:       d-19-15-2
    PSIDATADIR: /home/gridsan/kfisher/.conda/envs/p4env/share/psi4
    Memory:     18.6 GiB
    Threads:    1
    
  ==> Input QCSchema <==

--------------------------------------------------------------------------
{'driver': 'energy',
 'extras': {'psiapi': True, 'wfn_qcvars_only': True},
 'id': None,
 'keywords': {'D_CONVERGENCE': 1e-10, 'E_CONVERGENCE': 1e-10, 'function_kwargs': {}},
 'model': {'basis': 'aug-cc-pvtz', 'method': 'ccsd(t)'},
 'molecule': {'atom_labels': ['', '', '', '', '', '', '', '', ''],
              'atomic_numbers': [1, 1, 8, 1, 1, 8, 1, 1, 8],
              'fix_com': True,
              'fix_orientation': True,
              'fix_symmetry': 'c1',
              'fragment_charges': [0.0, 0.0, 0.0],
              'fragment_multiplicities': [1, 1, 1],
              'fragments': [[0, 1, 2], [3, 4, 5], [6, 7, 8]],
              'geometry': [4.601144589951697, -0.40663134326506045, -2.508494419703579, 7.305579647137981,
                           -0.98300612632465, -1.786005899240022, 5.731917850656521, -1.8018394609109631,
                           -2.208342283902231, 2.683563939199143, -4.274727188527134, -3.5375706516722962,
                           -0.11444670854839101, -3.992038295310061, -2.6573496016950084, 0.9750694655703398,
                           -4.780435152899174, -3.9325709196077763, 0.15146296625003902, -11.365354041579403,
                           -3.14658282032174, -0.06978503468288823, -8.596905154400119, -2.7013614365404885,
                           -0.47558735509671035, -10.209960861994276, -1.9014999884934483],
              'mass_numbers': [1, 1, 16, 1, 1, 16, 1, 1, 16],
              'masses': [1.00782503223, 1.00782503223, 15.99491461957, 1.00782503223, 1.00782503223, 15.99491461957,
                         1.00782503223, 1.00782503223, 15.99491461957],
              'molecular_charge': 0.0,
              'molecular_multiplicity': 1,
              'name': 'H6O3',
              'provenance': {'creator': 'QCElemental',
                             'routine': 'qcelemental.molparse.from_string',
                             'version': 'v0.25.1'},
              'real': [False, False, False, True, True, True, False, False, False],
              'schema_name': 'qcschema_molecule',
              'schema_version': 2,
              'symbols': ['H', 'H', 'O', 'H', 'H', 'O', 'H', 'H', 'O'],
              'validated': True},
 'protocols': {'stdout': True},
 'provenance': {'creator': 'QCElemental', 'routine': 'qcelemental.models.results', 'version': 'v0.25.1'},
 'schema_name': 'qcschema_input',
 'schema_version': 1}
--------------------------------------------------------------------------

Scratch directory: /home/gridsan/kfisher/scratch/

*** tstart() called on d-19-15-2
*** at Sun Sep 17 13:38:23 2023

   => Loading Basis Set <=

    Name: AUG-CC-PVTZ
    Role: ORBITAL
    Keyword: BASIS
    atoms 1-2, 4-5, 7-8 entry H          line    40 file /home/gridsan/kfisher/.conda/envs/p4env/share/psi4/basis/aug-cc-pvtz.gbs 
    atoms 3, 6, 9       entry O          line   331 file /home/gridsan/kfisher/.conda/envs/p4env/share/psi4/basis/aug-cc-pvtz.gbs 


         ---------------------------------------------------------
                                   SCF
               by Justin Turney, Rob Parrish, Andy Simmonett
                          and Daniel G. A. Smith
                              RHF Reference
                        1 Threads,  19073 MiB Core
         ---------------------------------------------------------

  ==> Geometry <==

    Molecular point group: c1
    Full point group: C1

    Geometry (in Bohr), charge = 0, multiplicity = 1:

       Center              X                  Y                   Z               Mass       
    ------------   -----------------  -----------------  -----------------  -----------------
      Gh(H)           4.601144589952    -0.406631343265    -2.508494419704     1.007825032230
      Gh(H)           7.305579647138    -0.983006126325    -1.786005899240     1.007825032230
      Gh(O)           5.731917850657    -1.801839460911    -2.208342283902    15.994914619570
         H            2.683563939199    -4.274727188527    -3.537570651672     1.007825032230
         H           -0.114446708548    -3.992038295310    -2.657349601695     1.007825032230
         O            0.975069465570    -4.780435152899    -3.932570919608    15.994914619570
      Gh(H)           0.151462966250   -11.365354041579    -3.146582820322     1.007825032230
      Gh(H)          -0.069785034683    -8.596905154400    -2.701361436540     1.007825032230
      Gh(O)          -0.475587355097   -10.209960861994    -1.901499988493    15.994914619570

  Running in c1 symmetry.

  Rotational constants: A =      0.08010  B =      0.02222  C =      0.01823 [cm^-1]
  Rotational constants: A =   2401.26552  B =    666.24782  C =    546.39975 [MHz]
  Nuclear repulsion =    9.039423983856757

  Charge       = 0
  Multiplicity = 1
  Electrons    = 10
  Nalpha       = 5
  Nbeta        = 5

  ==> Algorithm <==

  SCF Algorithm Type is PK.
  DIIS enabled.
  MOM disabled.
  Fractional occupation disabled.
  Guess Type is SAD.
  Energy threshold   = 1.00e-10
  Density threshold  = 1.00e-10
  Integral threshold = 1.00e-12

  ==> Primary Basis <==

  Basis Set: AUG-CC-PVTZ
    Blend: AUG-CC-PVTZ
    Number of shells: 96
    Number of basis functions: 276
    Number of Cartesian functions: 315
    Spherical Harmonics?: true
    Max angular momentum: 3

  ==> Integral Setup <==

  Using in-core PK algorithm.
   Calculation information:
      Number of atoms:                   9
      Number of AO shells:              96
      Number of primitives:            156
      Number of atomic orbitals:       315
      Number of basis functions:       276

      Integral cutoff                 1.00e-12
      Number of threads:                 1

  Performing in-core PK
  Using 1461265302 doubles for integral storage.
  We computed 8708478 shell quartets total.
  Whereas there are 10841496 unique shell quartets.

  ==> DiskJK: Disk-Based J/K Matrices <==

    J tasked:                  Yes
    K tasked:                  Yes
    wK tasked:                  No
    Memory [MiB]:            14305
    Schwarz Cutoff:          1E-12

    OpenMP threads:              1

  Minimum eigenvalue in the overlap matrix is 1.7737457904E-04.
  Reciprocal condition number of the overlap matrix is 1.8322782708E-05.
    Using symmetric orthogonalization.

  ==> Pre-Iterations <==

  SCF Guess: Superposition of Atomic Densities via on-the-fly atomic UHF (no occupation information).

   -------------------------
    Irrep   Nso     Nmo    
   -------------------------
     A        276     276 
   -------------------------
    Total     276     276
   -------------------------

  ==> Iterations <==

                        Total Energy        Delta E     RMS |[F,P]|

   @RHF iter SAD:   -75.45747390093959   -7.54575e+01   0.00000e+00 
   @RHF iter   1:   -75.97427859124201   -5.16805e-01   1.69333e-03 DIIS/ADIIS
   @RHF iter   2:   -76.02626777479291   -5.19892e-02   1.17005e-03 DIIS/ADIIS
   @RHF iter   3:   -76.05860819085197   -3.23404e-02   7.98333e-05 DIIS
   @RHF iter   4:   -76.05902045391406   -4.12263e-04   1.96660e-05 DIIS
   @RHF iter   5:   -76.05904796227875   -2.75084e-05   4.52308e-06 DIIS
   @RHF iter   6:   -76.05905027125146   -2.30897e-06   1.00295e-06 DIIS
   @RHF iter   7:   -76.05905039579274   -1.24541e-07   1.83156e-07 DIIS
   @RHF iter   8:   -76.05905039942289   -3.63015e-09   3.11135e-08 DIIS
   @RHF iter   9:   -76.05905039950758   -8.46967e-11   7.97838e-09 DIIS
   @RHF iter  10:   -76.05905039951261   -5.03064e-12   1.12791e-09 DIIS
   @RHF iter  11:   -76.05905039951251    9.94760e-14   1.87066e-10 DIIS
   @RHF iter  12:   -76.05905039951230    2.13163e-13   4.17386e-11 DIIS
  Energy and wave function converged.


  ==> Post-Iterations <==

    Orbital Energies [Eh]
    ---------------------

    Doubly Occupied:                                                      

       1A    -20.568934     2A     -1.344071     3A     -0.712695  
       4A     -0.577974     5A     -0.508451  

    Virtual:                                                              

       6A      0.020038     7A      0.038465     8A      0.041867  
       9A      0.060404    10A      0.064344    11A      0.080489  
      12A      0.105821    13A      0.119386    14A      0.132495  
      15A      0.145466    16A      0.153869    17A      0.159091  
      18A      0.163372    19A      0.184536    20A      0.190113  
      21A      0.204142    22A      0.216377    23A      0.237482  
      24A      0.252208    25A      0.258915    26A      0.274006  
      27A      0.290850    28A      0.302326    29A      0.307251  
      30A      0.313613    31A      0.328817    32A      0.346521  
      33A      0.347514    34A      0.360143    35A      0.365264  
      36A      0.376445    37A      0.380766    38A      0.391310  
      39A      0.399689    40A      0.415491    41A      0.421011  
      42A      0.444099    43A      0.464385    44A      0.471299  
      45A      0.496770    46A      0.545803    47A      0.575338  
      48A      0.608478    49A      0.654810    50A      0.670362  
      51A      0.688011    52A      0.709285    53A      0.724656  
      54A      0.742335    55A      0.746744    56A      0.767688  
      57A      0.787442    58A      0.794235    59A      0.804747  
      60A      0.816332    61A      0.819876    62A      0.825575  
      63A      0.828374    64A      0.846372    65A      0.856018  
      66A      0.863444    67A      0.880635    68A      0.889083  
      69A      0.894962    70A      0.906931    71A      0.914379  
      72A      0.921622    73A      0.926210    74A      0.958117  
      75A      0.967603    76A      0.974925    77A      0.990977  
      78A      1.006075    79A      1.018573    80A      1.021635  
      81A      1.028562    82A      1.031477    83A      1.049862  
      84A      1.061704    85A      1.073502    86A      1.082826  
      87A      1.103259    88A      1.139493    89A      1.146632  
      90A      1.169686    91A      1.182141    92A      1.199961  
      93A      1.223107    94A      1.236762    95A      1.240735  
      96A      1.273382    97A      1.290011    98A      1.309188  
      99A      1.330686   100A      1.375758   101A      1.389147  
     102A      1.434274   103A      1.455971   104A      1.486605  
     105A      1.506344   106A      1.535570   107A      1.609779  
     108A      1.624332   109A      1.655219   110A      1.669763  
     111A      1.691030   112A      1.705655   113A      1.712332  
     114A      1.735720   115A      1.757400   116A      1.790124  
     117A      1.800302   118A      1.817213   119A      1.844028  
     120A      1.856171   121A      1.885139   122A      1.900652  
     123A      1.944444   124A      2.015114   125A      2.054989  
     126A      2.103139   127A      2.215002   128A      2.325594  
     129A      2.359378   130A      2.404633   131A      2.438025  
     132A      2.450271   133A      2.457927   134A      2.484107  
     135A      2.496618   136A      2.503458   137A      2.513113  
     138A      2.535149   139A      2.543219   140A      2.560359  
     141A      2.568528   142A      2.583600   143A      2.590478  
     144A      2.625596   145A      2.656595   146A      2.670632  
     147A      2.684373   148A      2.708313   149A      2.738616  
     150A      2.797343   151A      2.810661   152A      2.835104  
     153A      2.874443   154A      2.940335   155A      2.952748  
     156A      2.999172   157A      3.032412   158A      3.060030  
     159A      3.176687   160A      3.189738   161A      3.220914  
     162A      3.230634   163A      3.297936   164A      3.316469  
     165A      3.339206   166A      3.359870   167A      3.451975  
     168A      3.482401   169A      3.549742   170A      3.592357  
     171A      3.662714   172A      3.783891   173A      3.857009  
     174A      3.982956   175A      4.094702   176A      4.251945  
     177A      4.280241   178A      4.338668   179A      4.369507  
     180A      4.394976   181A      4.425240   182A      4.437312  
     183A      4.475639   184A      4.478667   185A      4.496931  
     186A      4.516266   187A      4.534396   188A      4.577567  
     189A      4.580875   190A      4.598961   191A      4.617361  
     192A      4.717839   193A      4.735524   194A      4.759036  
     195A      4.847851   196A      4.861486   197A      4.868711  
     198A      4.884531   199A      4.896251   200A      4.941600  
     201A      4.947121   202A      4.977252   203A      5.058464  
     204A      5.152695   205A      5.207887   206A      5.246549  
     207A      5.318701   208A      5.368022   209A      5.386896  
     210A      5.546380   211A      5.564922   212A      5.601991  
     213A      5.603839   214A      5.652715   215A      5.658370  
     216A      5.704811   217A      5.791666   218A      5.923327  
     219A      5.971308   220A      6.142054   221A      6.244579  
     222A      6.275658   223A      6.391093   224A      6.398098  
     225A      6.562377   226A      6.642987   227A      6.697993  
     228A      6.817328   229A      6.938972   230A      7.081062  
     231A      7.126641   232A      7.232902   233A      7.322879  
     234A      7.353159   235A      7.362517   236A      7.418255  
     237A      7.498629   238A      7.653646   239A      7.693325  
     240A      7.722140   241A      7.851075   242A      7.891987  
     243A      7.962049   244A      7.998494   245A      8.034888  
     246A      8.040606   247A      8.140466   248A      8.146402  
     249A      8.272524   250A      8.303009   251A      8.725910  
     252A      8.787388   253A      8.815567   254A      8.828847  
     255A      8.941129   256A      9.662424   257A      9.747366  
     258A      9.859240   259A      9.877286   260A      9.985648  
     261A     10.075041   262A     10.222381   263A     10.337068  
     264A     11.245909   265A     11.254465   266A     11.592889  
     267A     11.703121   268A     12.069937   269A     12.129673  
     270A     13.588056   271A     13.607714   272A     13.812332  
     273A     13.960941   274A     16.381182   275A     64.574458  
     276A     65.825970  

    Final Occupation by Irrep:
              A 
    DOCC [     5 ]
    NA   [     5 ]
    NB   [     5 ]

  @RHF Final Energy:   -76.05905039951230

   => Energetics <=

    Nuclear Repulsion Energy =              9.0394239838567572
    One-Electron Energy =                -122.7726997992092208
    Two-Electron Energy =                  37.6742254158401622
    Total Energy =                        -76.0590503995123015

Computation Completed


Properties will be evaluated at   0.000000,   0.000000,   0.000000 [a0]

Properties computed using the SCF density matrix


 Multipole Moments:

 ------------------------------------------------------------------------------------
     Multipole            Electronic (a.u.)      Nuclear  (a.u.)        Total (a.u.)
 ------------------------------------------------------------------------------------

 L = 1.  Multiply by 2.5417464519 to convert [e a0] to [Debye]
 Dipole X            :        -10.1505096           10.3696730            0.2191634
 Dipole Y            :         46.9634836          -46.5102467            0.4532369
 Dipole Z            :         38.2399161          -37.6554876            0.5844285
 Magnitude           :                                                    0.7713708

 ------------------------------------------------------------------------------------

*** tstop() called on d-19-15-2 at Sun Sep 17 13:40:06 2023
Module time:
	user time   =      77.54 seconds =       1.29 minutes
	system time =       5.55 seconds =       0.09 minutes
	total time  =        103 seconds =       1.72 minutes
Total time:
	user time   =    1567.07 seconds =      26.12 minutes
	system time =     707.52 seconds =      11.79 minutes
	total time  =       3102 seconds =      51.70 minutes
 MINTS: Wrapper to libmints.
   by Justin Turney

   Calculation information:
      Number of threads:                 1
      Number of atoms:                   9
      Number of AO shells:              96
      Number of SO shells:              96
      Number of primitives:            156
      Number of atomic orbitals:       315
      Number of basis functions:       276

      Number of irreps:                  1
      Integral cutoff                 1.00e-12
      Number of functions per irrep: [ 276 ]

 OEINTS: Overlap, kinetic, potential, dipole, and quadrupole integrals
         stored in file 35.

      Computing two-electron integrals...done
      Computed 515711854 non-zero two-electron integrals.
        Stored in file 33.


*** tstart() called on d-19-15-2
*** at Sun Sep 17 13:41:14 2023


	Wfn Parameters:
	--------------------
	Wavefunction         = CCSD_T
	Number of irreps     = 1
	Number of MOs        = 276
	Number of active MOs = 276
	AO-Basis             = NONE
	Semicanonical        = false
	Reference            = RHF
	Print Level          = 1

	IRREP	# MOs	# FZDC	# DOCC	# SOCC	# VIRT	# FZVR
	-----	-----	------	------	------	------	------
	 A	   276	    0	    5	    0	    271	    0
	Transforming integrals...
	IWL integrals will be deleted.
	(OO|OO)...
	Presorting SO-basis two-electron integrals.
	Sorting File: SO Ints (nn|nn) nbuckets = 1
	Constructing frozen core operators
	Starting first half-transformation.
	Sorting half-transformed integrals.
	First half integral transformation complete.
	Starting second half-transformation.
	Two-electron integral transformation complete.
	(OO|OV)...
	Starting second half-transformation.
	Two-electron integral transformation complete.
	(OO|VV)...
	Starting second half-transformation.
	Two-electron integral transformation complete.
	(OV|OO)...
	Starting first half-transformation.
	Sorting half-transformed integrals.
	First half integral transformation complete.
	Starting second half-transformation.
	Two-electron integral transformation complete.
	(OV|OV)...
	Starting second half-transformation.
	Two-electron integral transformation complete.
	(OV|VV)...
	Starting second half-transformation.
	Two-electron integral transformation complete.
	(VV|OO)...
	Starting first half-transformation.
	Sorting half-transformed integrals.
	First half integral transformation complete.
	Starting second half-transformation.
	Two-electron integral transformation complete.
	(VV|OV)...
	Starting second half-transformation.
	Two-electron integral transformation complete.
	(VV|VV)...
	Starting second half-transformation.
	Two-electron integral transformation complete.
	Frozen core energy     =      0.00000000000000

	Size of irrep 0 of <ab|cd> integrals:   5393.580 (MW) /  43148.644 (MB)
	Total:                                  5393.580 (MW) /  43148.644 (MB)

	Size of irrep 0 of <ia|bc> integrals:     99.513 (MW) /    796.100 (MB)
	Total:                                    99.513 (MW) /    796.100 (MB)

	Size of irrep 0 of tijab amplitudes:       1.836 (MW) /     14.688 (MB)
	Total:                                     1.836 (MW) /     14.688 (MB)

	Nuclear Rep. energy          =      9.03942398385676
	SCF energy                   =    -76.05905039951230
	One-electron energy          =   -122.77269980590293
	Two-electron energy          =     37.67422542253362
	Reference energy             =    -76.05905039951256

*** tstop() called on d-19-15-2 at Sun Sep 17 14:00:37 2023
Module time:
	user time   =     530.27 seconds =       8.84 minutes
	system time =     356.71 seconds =       5.95 minutes
	total time  =       1163 seconds =      19.38 minutes
Total time:
	user time   =    2141.87 seconds =      35.70 minutes
	system time =    1076.79 seconds =      17.95 minutes
	total time  =       4333 seconds =      72.22 minutes
            **************************
            *                        *
            *        CCENERGY        *
            *                        *
            **************************

    Nuclear Rep. energy (wfn)     =    9.039423983856757
    SCF energy          (wfn)     =  -76.059050399512302
    Reference energy    (file100) =  -76.059050399512557

    Input parameters:
    -----------------
    Wave function   =     CCSD_T
    Reference wfn   =     RHF
    Brueckner       =     No
    Memory (Mbytes) =     20000.0
    Maxiter         =     50
    R_Convergence   =     1.0e-07
    E_Convergence   =     1.0e-10
    Restart         =     Yes
    DIIS            =     Yes
    AO Basis        =     NONE
    ABCD            =     NEW
    Cache Level     =     2
    Cache Type      =     LOW
    Print Level     =     1
    Num. of threads =     1
    # Amps to Print =     10
    Print MP2 Amps? =     No
    Analyze T2 Amps =     No
    Print Pair Ener =     No
    Local CC        =     No
    SCS-MP2         =     False
    SCSN-MP2        =     False
    SCS-CCSD        =     False

MP2 correlation energy -0.2855258602326135
                Solving CC Amplitude Equations
                ------------------------------
  Iter             Energy              RMS        T1Diag      D1Diag    New D1Diag    D2Diag
  ----     ---------------------    ---------   ----------  ----------  ----------   --------
     0        -0.285525860232614    0.000e+00    0.000000    0.000000    0.000000    0.119256
     1        -0.283601240955630    3.602e-02    0.007707    0.017346    0.017346    0.121643
     2        -0.288739040362783    1.280e-02    0.007543    0.017112    0.017112    0.126291
     3        -0.290122701870432    5.023e-03    0.008751    0.020391    0.020391    0.128527
     4        -0.289994369687732    1.114e-03    0.008912    0.020860    0.020860    0.128734
     5        -0.290002541778431    4.253e-04    0.008998    0.021160    0.021160    0.128795
     6        -0.290011199344244    1.193e-04    0.009022    0.021251    0.021251    0.128797
     7        -0.290009704246263    4.300e-05    0.009028    0.021276    0.021276    0.128788
     8        -0.290008891091143    1.332e-05    0.009030    0.021283    0.021283    0.128786
     9        -0.290009003017071    4.816e-06    0.009030    0.021285    0.021285    0.128786
    10        -0.290008802385956    1.746e-06    0.009031    0.021286    0.021286    0.128786
    11        -0.290008784846208    6.170e-07    0.009031    0.021286    0.021286    0.128786
    12        -0.290008774554657    2.628e-07    0.009031    0.021286    0.021286    0.128786
    13        -0.290008769538630    9.483e-08    0.009031    0.021286    0.021286    0.128786
    14        -0.290008769157797    3.453e-08    0.009031    0.021286    0.021286    0.128786
    15        -0.290008769411279    1.215e-08    0.009031    0.021286    0.021286    0.128786
    16        -0.290008769383308    4.418e-09    0.009031    0.021286    0.021286    0.128786
    17        -0.290008769370939    1.600e-09    0.009031    0.021286    0.021286    0.128786

    Iterations converged.


    Largest TIA Amplitudes:
              4  14        -0.0059385536
              3   6         0.0058768789
              4  17        -0.0056835080
              4  27         0.0055222612
              4   6         0.0054922787
              4  37         0.0050829802
              4  13        -0.0050313588
              4  10        -0.0049634149
              4   3         0.0043577522
              4   5        -0.0043173772

    Largest TIjAb Amplitudes:
      2   2  42  42        -0.0115850462
      3   3  42  42        -0.0088854923
      0   0 268 268        -0.0067357988
      2   2  36  36        -0.0063214967
      2   2  25  42        -0.0062538118
      2   2  42  25        -0.0062538118
      2   2  38  38        -0.0060357057
      2   2  37  37        -0.0059216320
      2   2  36  38         0.0057860408
      2   2  38  36         0.0057860408

    SCF energy       (wfn)                    =  -76.059050399512302
    Reference energy (file100)                =  -76.059050399512557

    Opposite-spin MP2 correlation energy      =   -0.216877330064001
    Same-spin MP2 correlation energy          =   -0.068648530168612
    Singles MP2 correlation energy            =   -0.000000000000000
    MP2 correlation energy                    =   -0.285525860232614
      * MP2 total energy                      =  -76.344576259745168

    Opposite-spin CCSD correlation energy     =   -0.228931245296426
    Same-spin CCSD correlation energy         =   -0.061077524074514
    Singles CCSD correlation energy           =    0.000000000000000
    CCSD correlation energy                   =   -0.290008769370939
      * CCSD total energy                     =  -76.349059168883500

            **************************
            *                        *
            *        CCTRIPLES       *
            *                        *
            **************************


    Wave function   =    CCSD_T
    Reference wfn   =      RHF

    Nuclear Rep. energy (wfn)                =    9.039423983856757
    SCF energy          (wfn)                =  -76.059050399512302
    Reference energy    (file100)            =  -76.059050399512557
    CCSD energy         (file100)            =   -0.290008769370939
    Total CCSD energy   (file100)            =  -76.349059168883500

    Number of ijk index combinations:               35
    Memory available in words               :      2500000000
    Approx. words needed per explicit thread:        79610044
    Number of threads for explicit ijk threading:    1

    MKL num_threads set to 1 for explicit threading.

    (T) energy                                =   -0.008951031746953
      * CCSD(T) total energy                  =  -76.358010200630446


    Psi4 stopped on: Sunday, 17 September 2023 02:15PM
    Psi4 wall time for execution: 0:37:02.84


    -----------------------------------------------------------------------
          Psi4: An Open-Source Ab Initio Electronic Structure Package
                               Psi4 1.7 release

                         Git: Rev {HEAD} 6ce35a5 


    D. G. A. Smith, L. A. Burns, A. C. Simmonett, R. M. Parrish,
    M. C. Schieber, R. Galvelis, P. Kraus, H. Kruse, R. Di Remigio,
    A. Alenaizan, A. M. James, S. Lehtola, J. P. Misiewicz, M. Scheurer,
    R. A. Shaw, J. B. Schriber, Y. Xie, Z. L. Glick, D. A. Sirianni,
    J. S. O'Brien, J. M. Waldrop, A. Kumar, E. G. Hohenstein,
    B. P. Pritchard, B. R. Brooks, H. F. Schaefer III, A. Yu. Sokolov,
    K. Patkowski, A. E. DePrince III, U. Bozkaya, R. A. King,
    F. A. Evangelista, J. M. Turney, T. D. Crawford, C. D. Sherrill,
    J. Chem. Phys. 152(18) 184108 (2020). https://doi.org/10.1063/5.0006002

                            Additional Code Authors
    E. T. Seidl, C. L. Janssen, E. F. Valeev, M. L. Leininger,
    J. F. Gonthier, R. M. Richard, H. R. McAlexander, M. Saitow, X. Wang,
    P. Verma, M. H. Lechner, A. Jiang, S. Behnle, A. G. Heide,
    M. F. Herbst, and D. L. Poole

             Previous Authors, Complete List of Code Contributors,
                       and Citations for Specific Modules
    https://github.com/psi4/psi4/blob/master/codemeta.json
    https://github.com/psi4/psi4/graphs/contributors
    http://psicode.org/psi4manual/master/introduction.html#citing-psifour

    -----------------------------------------------------------------------


    Psi4 started on: Sunday, 17 September 2023 12:48PM

    Process ID: 258105
    Host:       d-19-15-2
    PSIDATADIR: /home/gridsan/kfisher/.conda/envs/p4env/share/psi4
    Memory:     18.6 GiB
    Threads:    1
    
  ==> Input QCSchema <==

--------------------------------------------------------------------------
{'driver': 'energy',
 'extras': {'psiapi': True, 'wfn_qcvars_only': True},
 'id': None,
 'keywords': {'D_CONVERGENCE': 1e-10, 'E_CONVERGENCE': 1e-10, 'function_kwargs': {}},
 'model': {'basis': 'aug-cc-pvtz', 'method': 'ccsd(t)'},
 'molecule': {'atom_labels': ['', '', '', '', '', '', '', '', ''],
              'atomic_numbers': [1, 1, 8, 1, 1, 8, 1, 1, 8],
              'fix_com': True,
              'fix_orientation': True,
              'fix_symmetry': 'c1',
              'fragment_charges': [0.0, 0.0, 0.0],
              'fragment_multiplicities': [1, 1, 1],
              'fragments': [[0, 1, 2], [3, 4, 5], [6, 7, 8]],
              'geometry': [4.601144589951697, -0.40663134326506045, -2.508494419703579, 7.305579647137981,
                           -0.98300612632465, -1.786005899240022, 5.731917850656521, -1.8018394609109631,
                           -2.208342283902231, 2.683563939199143, -4.274727188527134, -3.5375706516722962,
                           -0.11444670854839101, -3.992038295310061, -2.6573496016950084, 0.9750694655703398,
                           -4.780435152899174, -3.9325709196077763, 0.15146296625003902, -11.365354041579403,
                           -3.14658282032174, -0.06978503468288823, -8.596905154400119, -2.7013614365404885,
                           -0.47558735509671035, -10.209960861994276, -1.9014999884934483],
              'mass_numbers': [1, 1, 16, 1, 1, 16, 1, 1, 16],
              'masses': [1.00782503223, 1.00782503223, 15.99491461957, 1.00782503223, 1.00782503223, 15.99491461957,
                         1.00782503223, 1.00782503223, 15.99491461957],
              'molecular_charge': 0.0,
              'molecular_multiplicity': 1,
              'name': 'H6O3',
              'provenance': {'creator': 'QCElemental',
                             'routine': 'qcelemental.molparse.from_string',
                             'version': 'v0.25.1'},
              'real': [False, False, False, True, True, True, True, True, True],
              'schema_name': 'qcschema_molecule',
              'schema_version': 2,
              'symbols': ['H', 'H', 'O', 'H', 'H', 'O', 'H', 'H', 'O'],
              'validated': True},
 'protocols': {'stdout': True},
 'provenance': {'creator': 'QCElemental', 'routine': 'qcelemental.models.results', 'version': 'v0.25.1'},
 'schema_name': 'qcschema_input',
 'schema_version': 1}
--------------------------------------------------------------------------

Scratch directory: /home/gridsan/kfisher/scratch/

*** tstart() called on d-19-15-2
*** at Sun Sep 17 14:15:25 2023

   => Loading Basis Set <=

    Name: AUG-CC-PVTZ
    Role: ORBITAL
    Keyword: BASIS
    atoms 1-2, 4-5, 7-8 entry H          line    40 file /home/gridsan/kfisher/.conda/envs/p4env/share/psi4/basis/aug-cc-pvtz.gbs 
    atoms 3, 6, 9       entry O          line   331 file /home/gridsan/kfisher/.conda/envs/p4env/share/psi4/basis/aug-cc-pvtz.gbs 


         ---------------------------------------------------------
                                   SCF
               by Justin Turney, Rob Parrish, Andy Simmonett
                          and Daniel G. A. Smith
                              RHF Reference
                        1 Threads,  19073 MiB Core
         ---------------------------------------------------------

  ==> Geometry <==

    Molecular point group: c1
    Full point group: C1

    Geometry (in Bohr), charge = 0, multiplicity = 1:

       Center              X                  Y                   Z               Mass       
    ------------   -----------------  -----------------  -----------------  -----------------
      Gh(H)           4.601144589952    -0.406631343265    -2.508494419704     1.007825032230
      Gh(H)           7.305579647138    -0.983006126325    -1.786005899240     1.007825032230
      Gh(O)           5.731917850657    -1.801839460911    -2.208342283902    15.994914619570
         H            2.683563939199    -4.274727188527    -3.537570651672     1.007825032230
         H           -0.114446708548    -3.992038295310    -2.657349601695     1.007825032230
         O            0.975069465570    -4.780435152899    -3.932570919608    15.994914619570
         H            0.151462966250   -11.365354041579    -3.146582820322     1.007825032230
         H           -0.069785034683    -8.596905154400    -2.701361436540     1.007825032230
         O           -0.475587355097   -10.209960861994    -1.901499988493    15.994914619570

  Running in c1 symmetry.

  Rotational constants: A =      0.08010  B =      0.02222  C =      0.01823 [cm^-1]
  Rotational constants: A =   2401.26552  B =    666.24782  C =    546.39975 [MHz]
  Nuclear repulsion =   35.094238876795686

  Charge       = 0
  Multiplicity = 1
  Electrons    = 20
  Nalpha       = 10
  Nbeta        = 10

  ==> Algorithm <==

  SCF Algorithm Type is PK.
  DIIS enabled.
  MOM disabled.
  Fractional occupation disabled.
  Guess Type is SAD.
  Energy threshold   = 1.00e-10
  Density threshold  = 1.00e-10
  Integral threshold = 1.00e-12

  ==> Primary Basis <==

  Basis Set: AUG-CC-PVTZ
    Blend: AUG-CC-PVTZ
    Number of shells: 96
    Number of basis functions: 276
    Number of Cartesian functions: 315
    Spherical Harmonics?: true
    Max angular momentum: 3

  ==> Integral Setup <==

  Using in-core PK algorithm.
   Calculation information:
      Number of atoms:                   9
      Number of AO shells:              96
      Number of primitives:            156
      Number of atomic orbitals:       315
      Number of basis functions:       276

      Integral cutoff                 1.00e-12
      Number of threads:                 1

  Performing in-core PK
  Using 1461265302 doubles for integral storage.
  We computed 8708478 shell quartets total.
  Whereas there are 10841496 unique shell quartets.

  ==> DiskJK: Disk-Based J/K Matrices <==

    J tasked:                  Yes
    K tasked:                  Yes
    wK tasked:                  No
    Memory [MiB]:            14305
    Schwarz Cutoff:          1E-12

    OpenMP threads:              1

  Minimum eigenvalue in the overlap matrix is 1.7737457904E-04.
  Reciprocal condition number of the overlap matrix is 1.8322782708E-05.
    Using symmetric orthogonalization.

  ==> Pre-Iterations <==

  SCF Guess: Superposition of Atomic Densities via on-the-fly atomic UHF (no occupation information).

   -------------------------
    Irrep   Nso     Nmo    
   -------------------------
     A        276     276 
   -------------------------
    Total     276     276
   -------------------------

  ==> Iterations <==

                        Total Energy        Delta E     RMS |[F,P]|

   @RHF iter SAD:  -150.98186838490423   -1.50982e+02   0.00000e+00 
   @RHF iter   1:  -151.96482965061659   -9.82961e-01   2.32643e-03 DIIS/ADIIS
   @RHF iter   2:  -152.06591119939941   -1.01082e-01   1.55775e-03 DIIS/ADIIS
   @RHF iter   3:  -152.12259538947808   -5.66842e-02   1.12608e-04 DIIS/ADIIS
   @RHF iter   4:  -152.12341774889222   -8.22359e-04   2.66893e-05 DIIS
   @RHF iter   5:  -152.12347018079470   -5.24319e-05   6.71984e-06 DIIS
   @RHF iter   6:  -152.12347504818501   -4.86739e-06   1.84122e-06 DIIS
   @RHF iter   7:  -152.12347530016717   -2.51982e-07   8.77146e-07 DIIS
   @RHF iter   8:  -152.12347533945623   -3.92891e-08   1.37574e-07 DIIS
   @RHF iter   9:  -152.12347534123157   -1.77533e-09   2.22519e-08 DIIS
   @RHF iter  10:  -152.12347534127636   -4.47926e-11   6.02515e-09 DIIS
   @RHF iter  11:  -152.12347534127940   -3.04112e-12   1.05174e-09 DIIS
   @RHF iter  12:  -152.12347534127929    1.13687e-13   2.23926e-10 DIIS
   @RHF iter  13:  -152.12347534127932   -2.84217e-14   7.87956e-11 DIIS
  Energy and wave function converged.


  ==> Post-Iterations <==

    Orbital Energies [Eh]
    ---------------------

    Doubly Occupied:                                                      

       1A    -20.589991     2A    -20.548653     3A     -1.366708  
       4A     -1.331144     5A     -0.734525     6A     -0.686962  
       7A     -0.602907     8A     -0.572636     9A     -0.528914  
      10A     -0.490812  

    Virtual:                                                              

      11A      0.017287    12A      0.039370    13A      0.039843  
      14A      0.060313    15A      0.061066    16A      0.088172  
      17A      0.103319    18A      0.119729    19A      0.137836  
      20A      0.148296    21A      0.154936    22A      0.170598  
      23A      0.184026    24A      0.187068    25A      0.194368  
      26A      0.206497    27A      0.219863    28A      0.233641  
      29A      0.249872    30A      0.254779    31A      0.264640  
      32A      0.284667    33A      0.291277    34A      0.297441  
      35A      0.309007    36A      0.326028    37A      0.341366  
      38A      0.347199    39A      0.356604    40A      0.369022  
      41A      0.375625    42A      0.377111    43A      0.387170  
      44A      0.411028    45A      0.422358    46A      0.430840  
      47A      0.443674    48A      0.459468    49A      0.481287  
      50A      0.487862    51A      0.536578    52A      0.585919  
      53A      0.602064    54A      0.650676    55A      0.661117  
      56A      0.689969    57A      0.708746    58A      0.724055  
      59A      0.735796    60A      0.740506    61A      0.754428  
      62A      0.760488    63A      0.768484    64A      0.780562  
      65A      0.789508    66A      0.795377    67A      0.811355  
      68A      0.819470    69A      0.841475    70A      0.846886  
      71A      0.860334    72A      0.878092    73A      0.887937  
      74A      0.900881    75A      0.920598    76A      0.927769  
      77A      0.938934    78A      0.950957    79A      0.958386  
      80A      0.967296    81A      0.973174    82A      0.975122  
      83A      0.990122    84A      1.010126    85A      1.013477  
      86A      1.020947    87A      1.027041    88A      1.043740  
      89A      1.052340    90A      1.062661    91A      1.081852  
      92A      1.104566    93A      1.135459    94A      1.145220  
      95A      1.164950    96A      1.185759    97A      1.192274  
      98A      1.208044    99A      1.218271   100A      1.232974  
     101A      1.259533   102A      1.269000   103A      1.290773  
     104A      1.317889   105A      1.326795   106A      1.370541  
     107A      1.422074   108A      1.434233   109A      1.478937  
     110A      1.488039   111A      1.514131   112A      1.554951  
     113A      1.562986   114A      1.608277   115A      1.625130  
     116A      1.640289   117A      1.682689   118A      1.686340  
     119A      1.703030   120A      1.728827   121A      1.770892  
     122A      1.789896   123A      1.808479   124A      1.853298  
     125A      1.874064   126A      1.903713   127A      1.954777  
     128A      2.004200   129A      2.044874   130A      2.054317  
     131A      2.110412   132A      2.267542   133A      2.304365  
     134A      2.321467   135A      2.349480   136A      2.384984  
     137A      2.398122   138A      2.419017   139A      2.437334  
     140A      2.454191   141A      2.469624   142A      2.485848  
     143A      2.493101   144A      2.501642   145A      2.523708  
     146A      2.537857   147A      2.543284   148A      2.558379  
     149A      2.590712   150A      2.613243   151A      2.623860  
     152A      2.664729   153A      2.709704   154A      2.739162  
     155A      2.767793   156A      2.779296   157A      2.788828  
     158A      2.813042   159A      2.841216   160A      2.910210  
     161A      2.953420   162A      2.956802   163A      2.981408  
     164A      2.985930   165A      3.002469   166A      3.081552  
     167A      3.172277   168A      3.226808   169A      3.302479  
     170A      3.332872   171A      3.346945   172A      3.539721  
     173A      3.655236   174A      3.724383   175A      3.797086  
     176A      3.935806   177A      3.984681   178A      4.061683  
     179A      4.091230   180A      4.156974   181A      4.177096  
     182A      4.243373   183A      4.264312   184A      4.282392  
     185A      4.291391   186A      4.328956   187A      4.366396  
     188A      4.394605   189A      4.416726   190A      4.426586  
     191A      4.431648   192A      4.445771   193A      4.472665  
     194A      4.499310   195A      4.509601   196A      4.592198  
     197A      4.610671   198A      4.627509   199A      4.676699  
     200A      4.722271   201A      4.754611   202A      4.818360  
     203A      4.847520   204A      4.855666   205A      4.895500  
     206A      4.961358   207A      4.975689   208A      4.996047  
     209A      5.112073   210A      5.153463   211A      5.186919  
     212A      5.211979   213A      5.273106   214A      5.306909  
     215A      5.337204   216A      5.352606   217A      5.391798  
     218A      5.523601   219A      5.556008   220A      5.592046  
     221A      5.596610   222A      5.687086   223A      5.694278  
     224A      5.777611   225A      5.964409   226A      6.227886  
     227A      6.238255   228A      6.269243   229A      6.391793  
     230A      6.540925   231A      6.550086   232A      6.688179  
     233A      6.747168   234A      6.787581   235A      6.915099  
     236A      6.991163   237A      7.108129   238A      7.144480  
     239A      7.206454   240A      7.270073   241A      7.298009  
     242A      7.304319   243A      7.327400   244A      7.339685  
     245A      7.344171   246A      7.390670   247A      7.419692  
     248A      7.454187   249A      7.509552   250A      7.640708  
     251A      7.655108   252A      7.713616   253A      7.844273  
     254A      7.942039   255A      7.960687   256A      7.974071  
     257A      8.015949   258A      8.031538   259A      8.140471  
     260A      8.266334   261A      8.720183   262A      8.785020  
     263A      8.816534   264A      8.869602   265A      9.741360  
     266A      9.855961   267A      9.979684   268A     10.216194  
     269A     11.240291   270A     11.586980   271A     12.066895  
     272A     13.582071   273A     13.806013   274A     16.084895  
     275A     16.578283   276A     64.571924  

    Final Occupation by Irrep:
              A 
    DOCC [    10 ]
    NA   [    10 ]
    NB   [    10 ]

  @RHF Final Energy:  -152.12347534127932

   => Energetics <=

    Nuclear Repulsion Energy =             35.0942388767956857
    One-Electron Energy =                -279.5289255439498106
    Two-Electron Energy =                  92.3112113258748224
    Total Energy =                       -152.1234753412792884

Computation Completed


Properties will be evaluated at   0.000000,   0.000000,   0.000000 [a0]

Properties computed using the SCF density matrix


 Multipole Moments:

 ------------------------------------------------------------------------------------
     Multipole            Electronic (a.u.)      Nuclear  (a.u.)        Total (a.u.)
 ------------------------------------------------------------------------------------

 L = 1.  Multiply by 2.5417464519 to convert [e a0] to [Debye]
 Dipole X            :         -6.0304748            6.6466520            0.6161773
 Dipole Y            :        148.9088246         -148.1521928            0.7566318
 Dipole Z            :         58.5512593          -58.7154318           -0.1641725
 Magnitude           :                                                    0.9895043

 ------------------------------------------------------------------------------------

*** tstop() called on d-19-15-2 at Sun Sep 17 14:17:10 2023
Module time:
	user time   =      74.55 seconds =       1.24 minutes
	system time =       3.14 seconds =       0.05 minutes
	total time  =        105 seconds =       1.75 minutes
Total time:
	user time   =    2516.08 seconds =      41.93 minutes
	system time =    1414.69 seconds =      23.58 minutes
	total time  =       5326 seconds =      88.77 minutes
 MINTS: Wrapper to libmints.
   by Justin Turney

   Calculation information:
      Number of threads:                 1
      Number of atoms:                   9
      Number of AO shells:              96
      Number of SO shells:              96
      Number of primitives:            156
      Number of atomic orbitals:       315
      Number of basis functions:       276

      Number of irreps:                  1
      Integral cutoff                 1.00e-12
      Number of functions per irrep: [ 276 ]

 OEINTS: Overlap, kinetic, potential, dipole, and quadrupole integrals
         stored in file 35.

      Computing two-electron integrals...done
      Computed 515711854 non-zero two-electron integrals.
        Stored in file 33.


*** tstart() called on d-19-15-2
*** at Sun Sep 17 14:18:22 2023


	Wfn Parameters:
	--------------------
	Wavefunction         = CCSD_T
	Number of irreps     = 1
	Number of MOs        = 276
	Number of active MOs = 276
	AO-Basis             = NONE
	Semicanonical        = false
	Reference            = RHF
	Print Level          = 1

	IRREP	# MOs	# FZDC	# DOCC	# SOCC	# VIRT	# FZVR
	-----	-----	------	------	------	------	------
	 A	   276	    0	    10	    0	    266	    0
	Transforming integrals...
	IWL integrals will be deleted.
	(OO|OO)...
	Presorting SO-basis two-electron integrals.
	Sorting File: SO Ints (nn|nn) nbuckets = 1
	Constructing frozen core operators
	Starting first half-transformation.
	Sorting half-transformed integrals.
	First half integral transformation complete.
	Starting second half-transformation.
	Two-electron integral transformation complete.
	(OO|OV)...
	Starting second half-transformation.
	Two-electron integral transformation complete.
	(OO|VV)...
	Starting second half-transformation.
	Two-electron integral transformation complete.
	(OV|OO)...
	Starting first half-transformation.
	Sorting half-transformed integrals.
	First half integral transformation complete.
	Starting second half-transformation.
	Two-electron integral transformation complete.
	(OV|OV)...
	Starting second half-transformation.
	Two-electron integral transformation complete.
	(OV|VV)...
	Starting second half-transformation.
	Two-electron integral transformation complete.
	(VV|OO)...
	Starting first half-transformation.
	Sorting half-transformed integrals.
	First half integral transformation complete.
	Starting second half-transformation.
	Two-electron integral transformation complete.
	(VV|OV)...
	Starting second half-transformation.
	Two-electron integral transformation complete.
	(VV|VV)...
	Starting second half-transformation.
	Two-electron integral transformation complete.
	Frozen core energy     =      0.00000000000000

	Size of irrep 0 of <ab|cd> integrals:   5006.412 (MW) /  40051.292 (MB)
	Total:                                  5006.412 (MW) /  40051.292 (MB)

	Size of irrep 0 of <ia|bc> integrals:    188.211 (MW) /   1505.688 (MB)
	Total:                                   188.211 (MW) /   1505.688 (MB)

	Size of irrep 0 of tijab amplitudes:       7.076 (MW) /     56.605 (MB)
	Total:                                     7.076 (MW) /     56.605 (MB)

	Nuclear Rep. energy          =     35.09423887679569
	SCF energy                   =   -152.12347534127932
	One-electron energy          =   -279.52892562453155
	Two-electron energy          =     92.31121140645639
	Reference energy             =   -152.12347534127949

*** tstop() called on d-19-15-2 at Sun Sep 17 14:35:06 2023
Module time:
	user time   =     490.33 seconds =       8.17 minutes
	system time =     321.45 seconds =       5.36 minutes
	total time  =       1004 seconds =      16.73 minutes
Total time:
	user time   =    3050.61 seconds =      50.84 minutes
	system time =    1749.33 seconds =      29.16 minutes
	total time  =       6402 seconds =     106.70 minutes
            **************************
            *                        *
            *        CCENERGY        *
            *                        *
            **************************

    Nuclear Rep. energy (wfn)     =   35.094238876795686
    SCF energy          (wfn)     = -152.123475341279317
    Reference energy    (file100) = -152.123475341279487

    Input parameters:
    -----------------
    Wave function   =     CCSD_T
    Reference wfn   =     RHF
    Brueckner       =     No
    Memory (Mbytes) =     20000.0
    Maxiter         =     50
    R_Convergence   =     1.0e-07
    E_Convergence   =     1.0e-10
    Restart         =     Yes
    DIIS            =     Yes
    AO Basis        =     NONE
    ABCD            =     NEW
    Cache Level     =     2
    Cache Type      =     LOW
    Print Level     =     1
    Num. of threads =     1
    # Amps to Print =     10
    Print MP2 Amps? =     No
    Analyze T2 Amps =     No
    Print Pair Ener =     No
    Local CC        =     No
    SCS-MP2         =     False
    SCSN-MP2        =     False
    SCS-CCSD        =     False

MP2 correlation energy -0.5718709135056825
                Solving CC Amplitude Equations
                ------------------------------
  Iter             Energy              RMS        T1Diag      D1Diag    New D1Diag    D2Diag
  ----     ---------------------    ---------   ----------  ----------  ----------   --------
     0        -0.571870913505683    0.000e+00    0.000000    0.000000    0.000000    0.120036
     1        -0.567928459905756    5.072e-02    0.007744    0.018696    0.018696    0.121472
     2        -0.578183682058239    1.781e-02    0.007618    0.018480    0.018480    0.126050
     3        -0.580891121600308    7.027e-03    0.008861    0.022172    0.022172    0.128203
     4        -0.580619926168381    1.510e-03    0.009025    0.022684    0.022684    0.128382
     5        -0.580642960779698    5.851e-04    0.009117    0.023045    0.023045    0.128437
     6        -0.580657525205550    1.560e-04    0.009141    0.023144    0.023144    0.128434
     7        -0.580653683540675    5.868e-05    0.009146    0.023172    0.023172    0.128425
     8        -0.580652236844543    1.843e-05    0.009147    0.023179    0.023179    0.128423
     9        -0.580652524593851    7.402e-06    0.009148    0.023182    0.023182    0.128423
    10        -0.580652086719708    3.170e-06    0.009148    0.023183    0.023183    0.128422
    11        -0.580652074597493    1.372e-06    0.009148    0.023183    0.023183    0.128422
    12        -0.580652051386979    6.741e-07    0.009148    0.023183    0.023183    0.128422
    13        -0.580652039090938    2.532e-07    0.009148    0.023182    0.023182    0.128422
    14        -0.580652037596140    9.165e-08    0.009148    0.023182    0.023182    0.128422
[...]
  Nuclear repulsion =   35.094238876795686

  Charge       = 0
  Multiplicity = 1
  Electrons    = 20
  Nalpha       = 10
  Nbeta        = 10

  ==> Algorithm <==

  SCF Algorithm Type is PK.
  DIIS enabled.
  MOM disabled.
  Fractional occupation disabled.
  Guess Type is SAD.
  Energy threshold   = 1.00e-10
  Density threshold  = 1.00e-10
  Integral threshold = 1.00e-12

  ==> Primary Basis <==

  Basis Set: AUG-CC-PVTZ
    Blend: AUG-CC-PVTZ
    Number of shells: 64
    Number of basis functions: 184
    Number of Cartesian functions: 210
    Spherical Harmonics?: true
    Max angular momentum: 3

  ==> Integral Setup <==

  Using in-core PK algorithm.
   Calculation information:
      Number of atoms:                   6
      Number of AO shells:              64
      Number of primitives:            104
      Number of atomic orbitals:       210
      Number of basis functions:       184

      Integral cutoff                 1.00e-12
      Number of threads:                 1

  Performing in-core PK
  Using 289697420 doubles for integral storage.
  We computed 2039654 shell quartets total.
  Whereas there are 2164240 unique shell quartets.

  ==> DiskJK: Disk-Based J/K Matrices <==

    J tasked:                  Yes
    K tasked:                  Yes
    wK tasked:                  No
    Memory [MiB]:            14305
    Schwarz Cutoff:          1E-12

    OpenMP threads:              1

  Minimum eigenvalue in the overlap matrix is 2.2880993501E-04.
  Reciprocal condition number of the overlap matrix is 2.5982862227E-05.
    Using symmetric orthogonalization.

  ==> Pre-Iterations <==

  SCF Guess: Superposition of Atomic Densities via on-the-fly atomic UHF (no occupation information).

   -------------------------
    Irrep   Nso     Nmo    
   -------------------------
     A        184     184 
   -------------------------
    Total     184     184
   -------------------------

  ==> Iterations <==

                        Total Energy        Delta E     RMS |[F,P]|

   @RHF iter SAD:  -150.98186838490420   -1.50982e+02   0.00000e+00 
   @RHF iter   1:  -151.96480365750926   -9.82935e-01   3.48956e-03 DIIS/ADIIS
   @RHF iter   2:  -152.06587884008846   -1.01075e-01   2.33647e-03 DIIS/ADIIS
   @RHF iter   3:  -152.12255605427868   -5.66772e-02   1.70137e-04 DIIS/ADIIS
   @RHF iter   4:  -152.12338289328292   -8.26839e-04   3.99890e-05 DIIS
   @RHF iter   5:  -152.12343531008671   -5.24168e-05   1.00790e-05 DIIS
   @RHF iter   6:  -152.12344018043373   -4.87035e-06   2.75272e-06 DIIS
   @RHF iter   7:  -152.12344043169941   -2.51266e-07   1.31354e-06 DIIS
   @RHF iter   8:  -152.12344047067353   -3.89741e-08   2.06135e-07 DIIS
   @RHF iter   9:  -152.12344047244073   -1.76721e-09   3.32788e-08 DIIS
   @RHF iter  10:  -152.12344047248558   -4.48495e-11   9.02192e-09 DIIS
   @RHF iter  11:  -152.12344047248874   -3.15481e-12   1.57844e-09 DIIS
   @RHF iter  12:  -152.12344047248865    8.52651e-14   3.35974e-10 DIIS
   @RHF iter  13:  -152.12344047248882   -1.70530e-13   1.18214e-10 DIIS
   @RHF iter  14:  -152.12344047248860    2.27374e-13   3.04490e-11 DIIS
  Energy and wave function converged.


  ==> Post-Iterations <==

    Orbital Energies [Eh]
    ---------------------

    Doubly Occupied:                                                      

       1A    -20.589979     2A    -20.548652     3A     -1.366718  
       4A     -1.331143     5A     -0.734536     6A     -0.686962  
       7A     -0.602913     8A     -0.572637     9A     -0.528919  
      10A     -0.490810  

    Virtual:                                                              

      11A      0.023395    12A      0.044436    13A      0.047439  
      14A      0.076965    15A      0.119648    16A      0.142892  
      17A      0.159468    18A      0.173597    19A      0.178308  
      20A      0.183940    21A      0.208636    22A      0.214529  
      23A      0.232182    24A      0.239998    25A      0.260489  
      26A      0.279083    27A      0.293664    28A      0.300184  
      29A      0.358681    30A      0.361961    31A      0.371458  
      32A      0.394491    33A      0.405382    34A      0.436276  
      35A      0.445817    36A      0.463136    37A      0.476116  
      38A      0.579664    39A      0.604003    40A      0.627605  
      41A      0.662076    42A      0.712229    43A      0.715140  
      44A      0.742058    45A      0.757069    46A      0.765792  
      47A      0.767941    48A      0.786674    49A      0.817374  
      50A      0.837157    51A      0.843746    52A      0.874732  
      53A      0.906002    54A      0.917123    55A      0.935838  
      56A      0.946080    57A      0.954958    58A      0.962255  
      59A      0.975635    60A      0.990221    61A      0.995976  
      62A      1.027163    63A      1.033716    64A      1.048410  
      65A      1.061637    66A      1.097968    67A      1.118110  
      68A      1.150683    69A      1.166565    70A      1.197861  
      71A      1.212183    72A      1.237859    73A      1.260471  
      74A      1.290206    75A      1.312880    76A      1.384793  
      77A      1.490812    78A      1.513707    79A      1.544832  
      80A      1.556081    81A      1.612600    82A      1.627016  
      83A      1.640469    84A      1.734667    85A      1.796047  
      86A      1.831052    87A      1.942437    88A      1.957229  
      89A      2.016855    90A      2.077229    91A      2.135145  
      92A      2.254478    93A      2.301277    94A      2.329078  
      95A      2.345626    96A      2.385398    97A      2.404560  
      98A      2.417782    99A      2.444320   100A      2.468060  
     101A      2.492287   102A      2.495430   103A      2.528393  
     104A      2.592827   105A      2.668720   106A      2.689909  
     107A      2.702005   108A      2.744581   109A      2.754437  
     110A      2.768704   111A      2.818833   112A      2.849985  
     113A      2.872363   114A      2.923902   115A      2.973886  
     116A      2.988139   117A      3.707367   118A      3.760802  
     119A      3.776438   120A      3.961690   121A      4.006890  
     122A      4.073294   123A      4.146937   124A      4.169244  
     125A      4.219703   126A      4.241699   127A      4.273800  
     128A      4.280040   129A      4.311310   130A      4.378730  
     131A      4.406273   132A      4.418532   133A      4.431917  
     134A      4.457599   135A      4.475650   136A      4.563363  
     137A      4.609264   138A      4.676412   139A      4.732233  
     140A      4.797892   141A      4.847551   142A      4.976853  
     143A      5.085723   144A      5.138502   145A      5.162060  
     146A      5.234319   147A      5.291834   148A      5.295112  
     149A      5.308047   150A      5.384701   151A      5.519221  
     152A      5.587587   153A      5.680905   154A      5.728569  
     155A      6.188518   156A      6.262297   157A      6.531407  
     158A      6.544336   159A      6.721869   160A      6.746464  
     161A      6.876049   162A      6.988659   163A      7.125932  
     164A      7.177995   165A      7.263462   166A      7.273579  
     167A      7.291008   168A      7.307129   169A      7.317098  
     170A      7.331143   171A      7.341996   172A      7.375185  
     173A      7.416084   174A      7.478352   175A      7.522875  
     176A      7.679282   177A      7.887402   178A      7.902287  
     179A      7.954305   180A      8.010613   181A      8.775208  
     182A      8.864766   183A     15.499772   184A     16.428353  

    Final Occupation by Irrep:
              A 
    DOCC [    10 ]
    NA   [    10 ]
    NB   [    10 ]

  @RHF Final Energy:  -152.12344047248860

   => Energetics <=

    Nuclear Repulsion Energy =             35.0942388767956857
    One-Electron Energy =                -279.5288218696830427
    Two-Electron Energy =                  92.3111425203987608
    Total Energy =                       -152.1234404724885962

Computation Completed


Properties will be evaluated at   0.000000,   0.000000,   0.000000 [a0]

Properties computed using the SCF density matrix


 Multipole Moments:

 ------------------------------------------------------------------------------------
     Multipole            Electronic (a.u.)      Nuclear  (a.u.)        Total (a.u.)
 ------------------------------------------------------------------------------------

 L = 1.  Multiply by 2.5417464519 to convert [e a0] to [Debye]
 Dipole X            :         -6.0305561            6.6466520            0.6160959
 Dipole Y            :        148.9087521         -148.1521928            0.7565593
 Dipole Z            :         58.5511402          -58.7154318           -0.1642916
 Magnitude           :                                                    0.9894180

 ------------------------------------------------------------------------------------

*** tstop() called on d-19-15-2 at Sun Sep 17 19:42:40 2023
Module time:
	user time   =      18.07 seconds =       0.30 minutes
	system time =       1.16 seconds =       0.02 minutes
	total time  =         20 seconds =       0.33 minutes
Total time:
	user time   =   14668.89 seconds =     244.48 minutes
	system time =    6934.32 seconds =     115.57 minutes
	total time  =      24856 seconds =     414.27 minutes
 MINTS: Wrapper to libmints.
   by Justin Turney

   Calculation information:
      Number of threads:                 1
      Number of atoms:                   6
      Number of AO shells:              64
      Number of SO shells:              64
      Number of primitives:            104
      Number of atomic orbitals:       210
      Number of basis functions:       184

      Number of irreps:                  1
      Integral cutoff                 1.00e-12
      Number of functions per irrep: [ 184 ]

 OEINTS: Overlap, kinetic, potential, dipole, and quadrupole integrals
         stored in file 35.

      Computing two-electron integrals...done
      Computed 129767093 non-zero two-electron integrals.
        Stored in file 33.


*** tstart() called on d-19-15-2
*** at Sun Sep 17 19:42:51 2023


	Wfn Parameters:
	--------------------
	Wavefunction         = CCSD_T
	Number of irreps     = 1
	Number of MOs        = 184
	Number of active MOs = 184
	AO-Basis             = NONE
	Semicanonical        = false
	Reference            = RHF
	Print Level          = 1

	IRREP	# MOs	# FZDC	# DOCC	# SOCC	# VIRT	# FZVR
	-----	-----	------	------	------	------	------
	 A	   184	    0	    10	    0	    174	    0
	Transforming integrals...
	IWL integrals will be deleted.
	(OO|OO)...
	Presorting SO-basis two-electron integrals.
	Sorting File: SO Ints (nn|nn) nbuckets = 1
	Constructing frozen core operators
	Starting first half-transformation.
	Sorting half-transformed integrals.
	First half integral transformation complete.
	Starting second half-transformation.
	Two-electron integral transformation complete.
	(OO|OV)...
	Starting second half-transformation.
	Two-electron integral transformation complete.
	(OO|VV)...
	Starting second half-transformation.
	Two-electron integral transformation complete.
	(OV|OO)...
	Starting first half-transformation.
	Sorting half-transformed integrals.
	First half integral transformation complete.
	Starting second half-transformation.
	Two-electron integral transformation complete.
	(OV|OV)...
	Starting second half-transformation.
	Two-electron integral transformation complete.
	(OV|VV)...
	Starting second half-transformation.
	Two-electron integral transformation complete.
	(VV|OO)...
	Starting first half-transformation.
	Sorting half-transformed integrals.
	First half integral transformation complete.
	Starting second half-transformation.
	Two-electron integral transformation complete.
	(VV|OV)...
	Starting second half-transformation.
	Two-electron integral transformation complete.
	(VV|VV)...
	Starting second half-transformation.
	Two-electron integral transformation complete.
	Frozen core energy     =      0.00000000000000

	Size of irrep 0 of <ab|cd> integrals:    916.636 (MW) /   7333.089 (MB)
	Total:                                   916.636 (MW) /   7333.089 (MB)

	Size of irrep 0 of <ia|bc> integrals:     52.680 (MW) /    421.442 (MB)
	Total:                                    52.680 (MW) /    421.442 (MB)

	Size of irrep 0 of tijab amplitudes:       3.028 (MW) /     24.221 (MB)
	Total:                                     3.028 (MW) /     24.221 (MB)

	Nuclear Rep. energy          =     35.09423887679569
	SCF energy                   =   -152.12344047248860
	One-electron energy          =   -279.52882185942195
	Two-electron energy          =     92.31114251013734
	Reference energy             =   -152.12344047248891

*** tstop() called on d-19-15-2 at Sun Sep 17 19:44:58 2023
Module time:
	user time   =      65.54 seconds =       1.09 minutes
	system time =      59.53 seconds =       0.99 minutes
	total time  =        127 seconds =       2.12 minutes
Total time:
	user time   =   14743.36 seconds =     245.72 minutes
	system time =    6996.78 seconds =     116.61 minutes
	total time  =      24994 seconds =     416.57 minutes
            **************************
            *                        *
            *        CCENERGY        *
            *                        *
            **************************

    Nuclear Rep. energy (wfn)     =   35.094238876795686
    SCF energy          (wfn)     = -152.123440472488596
    Reference energy    (file100) = -152.123440472488909

    Input parameters:
    -----------------
    Wave function   =     CCSD_T
    Reference wfn   =     RHF
    Brueckner       =     No
    Memory (Mbytes) =     20000.0
    Maxiter         =     50
    R_Convergence   =     1.0e-07
    E_Convergence   =     1.0e-10
    Restart         =     Yes
    DIIS            =     Yes
    AO Basis        =     NONE
    ABCD            =     NEW
    Cache Level     =     2
    Cache Type      =     LOW
    Print Level     =     1
    Num. of threads =     1
    # Amps to Print =     10
    Print MP2 Amps? =     No
    Analyze T2 Amps =     No
    Print Pair Ener =     No
    Local CC        =     No
    SCS-MP2         =     False
    SCSN-MP2        =     False
    SCS-CCSD        =     False

MP2 correlation energy -0.5713448167657242
                Solving CC Amplitude Equations
                ------------------------------
  Iter             Energy              RMS        T1Diag      D1Diag    New D1Diag    D2Diag
  ----     ---------------------    ---------   ----------  ----------  ----------   --------
     0        -0.571344816765724    0.000e+00    0.000000    0.000000    0.000000    0.120029
     1        -0.567398621395633    5.073e-02    0.007748    0.018708    0.018708    0.121471
     2        -0.577651778444176    1.781e-02    0.007622    0.018493    0.018493    0.126049
     3        -0.580359312723192    7.023e-03    0.008867    0.022189    0.022189    0.128204
     4        -0.580084699721707    1.497e-03    0.009030    0.022700    0.022700    0.128382
     5        -0.580110441366372    5.758e-04    0.009122    0.023062    0.023062    0.128437
     6        -0.580123859592657    1.486e-04    0.009145    0.023158    0.023158    0.128432
     7        -0.580119790639541    5.583e-05    0.009151    0.023184    0.023184    0.128424
     8        -0.580118510700328    1.746e-05    0.009152    0.023192    0.023192    0.128422
     9        -0.580118813272227    7.224e-06    0.009153    0.023194    0.023194    0.128422
    10        -0.580118347472925    3.065e-06    0.009153    0.023195    0.023195    0.128422
    11        -0.580118359891520    1.230e-06    0.009153    0.023195    0.023195    0.128422
    12        -0.580118337480139    5.874e-07    0.009153    0.023195    0.023195    0.128422
    13        -0.580118327837617    1.951e-07    0.009153    0.023195    0.023195    0.128422
    14        -0.580118328765745    6.501e-08    0.009153    0.023195    0.023195    0.128422
    15        -0.580118329243715    2.541e-08    0.009153    0.023195    0.023195    0.128422
    16        -0.580118328995236    9.374e-09    0.009153    0.023195    0.023195    0.128422
    17        -0.580118328951645    3.737e-09    0.009153    0.023195    0.023195    0.128422
    18        -0.580118328954673    1.486e-09    0.009153    0.023195    0.023195    0.128422

    Iterations converged.


    Largest TIA Amplitudes:
              9   8         0.0085309684
              8  15         0.0081264695
              9  17         0.0079071180
              9   7        -0.0077312471
              9  22         0.0076581356
              8   4         0.0075581354
              9   6         0.0072153184
              6   4        -0.0071696396
              7   5         0.0062752060
              8  13        -0.0062193805

    Largest TIjAb Amplitudes:
      5   5  26  26        -0.0175589799
      4   4  25  25        -0.0169314396
      5   5  26  53        -0.0089607963
      5   5  53  26        -0.0089607963
      4   4  24  25        -0.0083333007
      4   4  25  24        -0.0083333007
      5   5  16  26        -0.0081698535
      5   5  26  16        -0.0081698535
      4   4  24  24        -0.0080501106
      8   8  60  60        -0.0079254150

    SCF energy       (wfn)                    = -152.123440472488596
    Reference energy (file100)                = -152.123440472488909

    Opposite-spin MP2 correlation energy      =   -0.433244146141619
    Same-spin MP2 correlation energy          =   -0.138100670624106
    Singles MP2 correlation energy            =   -0.000000000000000
    MP2 correlation energy                    =   -0.571344816765724
      * MP2 total energy                      = -152.694785289254639

    Opposite-spin CCSD correlation energy     =   -0.457027258569220
    Same-spin CCSD correlation energy         =   -0.123091070385452
    Singles CCSD correlation energy           =    0.000000000000000
    CCSD correlation energy                   =   -0.580118328954673
      * CCSD total energy                     = -152.703558801443592

            **************************
            *                        *
            *        CCTRIPLES       *
            *                        *
            **************************


    Wave function   =    CCSD_T
    Reference wfn   =      RHF

    Nuclear Rep. energy (wfn)                =   35.094238876795686
    SCF energy          (wfn)                = -152.123440472488596
    Reference energy    (file100)            = -152.123440472488909
    CCSD energy         (file100)            =   -0.580118328954673
    Total CCSD energy   (file100)            = -152.703558801443592

    Number of ijk index combinations:              220
    Memory available in words               :      2500000000
    Approx. words needed per explicit thread:        21072096
    Number of threads for explicit ijk threading:    1

    MKL num_threads set to 1 for explicit threading.

    (T) energy                                =   -0.018107053354671
      * CCSD(T) total energy                  = -152.721665854798260


    Psi4 stopped on: Sunday, 17 September 2023 07:51PM
    Psi4 wall time for execution: 0:09:30.85


  //>>>>>>>>>>>>>>>>>>>>>>>>>>>>>>>>>>>//
  //          ManyBody Results         //
  //<<<<<<<<<<<<<<<<<<<<<<<<<<<<<<<<<<<//


   ==> N-Body: Counterpoise Corrected (CP) energies <==

        n-Body     Total Energy            Interaction Energy                          N-body Contribution to Interaction Energy
                   [Eh]                    [Eh]                  [kcal/mol]            [Eh]                  [kcal/mol]
             1  N/A                         0.000000000000        0.000000000000        0.000000000000        0.000000000000
  FULL/RTN   2  N/A                        -0.006641492940       -4.167599739996       -0.006641492940       -4.167599739996


