Scratch directory: /home/gridsan/kfisher/scratch/

  //>>>>>>>>>>>>>>>>>>>>>>>>>>>>>>>>>>>>>>>>//
  // ManyBody Setup: N-Body Levels [1, 2, 3]//
  //<<<<<<<<<<<<<<<<<<<<<<<<<<<<<<<<<<<<<<<<//

        Number of 1-body computations:     3
        Number of 2-body computations:     3
        Number of 3-body computations:     1

    -----------------------------------------------------------------------
          Psi4: An Open-Source Ab Initio Electronic Structure Package
                               Psi4 1.7 release

                         Git: Rev {HEAD} 6ce35a5 


    D. G. A. Smith, L. A. Burns, A. C. Simmonett, R. M. Parrish,
    M. C. Schieber, R. Galvelis, P. Kraus, H. Kruse, R. Di Remigio,
    A. Alenaizan, A. M. James, S. Lehtola, J. P. Misiewicz, M. Scheurer,
    R. A. Shaw, J. B. Schriber, Y. Xie, Z. L. Glick, D. A. Sirianni,
    J. S. O'Brien, J. M. Waldrop, A. Kumar, E. G. Hohenstein,
    B. P. Pritchard, B. R. Brooks, H. F. Schaefer III, A. Yu. Sokolov,
    K. Patkowski, A. E. DePrince III, U. Bozkaya, R. A. King,
    F. A. Evangelista, J. M. Turney, T. D. Crawford, C. D. Sherrill,
    J. Chem. Phys. 152(18) 184108 (2020). https://doi.org/10.1063/5.0006002

                            Additional Code Authors
    E. T. Seidl, C. L. Janssen, E. F. Valeev, M. L. Leininger,
    J. F. Gonthier, R. M. Richard, H. R. McAlexander, M. Saitow, X. Wang,
    P. Verma, M. H. Lechner, A. Jiang, S. Behnle, A. G. Heide,
    M. F. Herbst, and D. L. Poole

             Previous Authors, Complete List of Code Contributors,
                       and Citations for Specific Modules
    https://github.com/psi4/psi4/blob/master/codemeta.json
    https://github.com/psi4/psi4/graphs/contributors
    http://psicode.org/psi4manual/master/introduction.html#citing-psifour

    -----------------------------------------------------------------------


    Psi4 started on: Sunday, 17 September 2023 12:48PM

    Process ID: 258105
    Host:       d-19-15-2
    PSIDATADIR: /home/gridsan/kfisher/.conda/envs/p4env/share/psi4
    Memory:     18.6 GiB
    Threads:    1
    
  ==> Input QCSchema <==

--------------------------------------------------------------------------
{'driver': 'energy',
 'extras': {'psiapi': True, 'wfn_qcvars_only': True},
 'id': None,
 'keywords': {'D_CONVERGENCE': 1e-10, 'E_CONVERGENCE': 1e-10, 'function_kwargs': {}},
 'model': {'basis': 'aug-cc-pvtz', 'method': 'ccsd(t)'},
 'molecule': {'atom_labels': ['', '', '', '', '', '', '', '', ''],
              'atomic_numbers': [1, 1, 8, 1, 1, 8, 1, 1, 8],
              'fix_com': True,
              'fix_orientation': True,
              'fix_symmetry': 'c1',
              'fragment_charges': [0.0, 0.0, 0.0],
              'fragment_multiplicities': [1, 1, 1],
              'fragments': [[0, 1, 2], [3, 4, 5], [6, 7, 8]],
              'geometry': [-4.395668451131715, -2.556518842312072, 5.004012468048863, -7.276735604552182,
                           -2.340374368034385, 5.656810440135804, -6.010187883890869, -1.9368071022981868,
                           4.3617859451611745, -6.2618102654205146, -2.979964174956484, 0.46718064386595365,
                           -6.10548093314398, -2.2969725556794636, -2.4562973495292453, -6.10055439823765,
                           -3.722620740802205, -1.202151240025168, -2.438538383703597, -9.023254674845916,
                           -2.2117024626176915, -2.889662024681536, -6.1907447334177546, -1.703594489374536,
                           -1.5037616396830085, -7.481255523055421, -1.6677074564164167],
              'mass_numbers': [1, 1, 16, 1, 1, 16, 1, 1, 16],
              'masses': [1.00782503223, 1.00782503223, 15.99491461957, 1.00782503223, 1.00782503223, 15.99491461957,
                         1.00782503223, 1.00782503223, 15.99491461957],
              'molecular_charge': 0.0,
              'molecular_multiplicity': 1,
              'name': 'H6O3',
              'provenance': {'creator': 'QCElemental',
                             'routine': 'qcelemental.molparse.from_string',
                             'version': 'v0.25.1'},
              'real': [True, True, True, False, False, False, False, False, False],
              'schema_name': 'qcschema_molecule',
              'schema_version': 2,
              'symbols': ['H', 'H', 'O', 'H', 'H', 'O', 'H', 'H', 'O'],
              'validated': True},
 'protocols': {'stdout': True},
 'provenance': {'creator': 'QCElemental', 'routine': 'qcelemental.models.results', 'version': 'v0.25.1'},
 'schema_name': 'qcschema_input',
 'schema_version': 1}
--------------------------------------------------------------------------

Scratch directory: /home/gridsan/kfisher/scratch/

*** tstart() called on d-19-15-2
*** at Tue Sep 19 14:25:41 2023

   => Loading Basis Set <=

    Name: AUG-CC-PVTZ
    Role: ORBITAL
    Keyword: BASIS
    atoms 1-2, 4-5, 7-8 entry H          line    40 file /home/gridsan/kfisher/.conda/envs/p4env/share/psi4/basis/aug-cc-pvtz.gbs 
    atoms 3, 6, 9       entry O          line   331 file /home/gridsan/kfisher/.conda/envs/p4env/share/psi4/basis/aug-cc-pvtz.gbs 


         ---------------------------------------------------------
                                   SCF
               by Justin Turney, Rob Parrish, Andy Simmonett
                          and Daniel G. A. Smith
                              RHF Reference
                        1 Threads,  19073 MiB Core
         ---------------------------------------------------------

  ==> Geometry <==

    Molecular point group: c1
    Full point group: C1

    Geometry (in Bohr), charge = 0, multiplicity = 1:

       Center              X                  Y                   Z               Mass       
    ------------   -----------------  -----------------  -----------------  -----------------
         H           -4.395668451132    -2.556518842312     5.004012468049     1.007825032230
         H           -7.276735604552    -2.340374368034     5.656810440136     1.007825032230
         O           -6.010187883891    -1.936807102298     4.361785945161    15.994914619570
      Gh(H)          -6.261810265421    -2.979964174956     0.467180643866     1.007825032230
      Gh(H)          -6.105480933144    -2.296972555679    -2.456297349529     1.007825032230
      Gh(O)          -6.100554398238    -3.722620740802    -1.202151240025    15.994914619570
      Gh(H)          -2.438538383704    -9.023254674846    -2.211702462618     1.007825032230
      Gh(H)          -2.889662024682    -6.190744733418    -1.703594489375     1.007825032230
      Gh(O)          -1.503761639683    -7.481255523055    -1.667707456416    15.994914619570

  Running in c1 symmetry.

  Rotational constants: A =      0.06318  B =      0.02564  C =      0.02019 [cm^-1]
  Rotational constants: A =   1894.04778  B =    768.69883  C =    605.32539 [MHz]
  Nuclear repulsion =    8.984941985663543

  Charge       = 0
  Multiplicity = 1
  Electrons    = 10
  Nalpha       = 5
  Nbeta        = 5

  ==> Algorithm <==

  SCF Algorithm Type is PK.
  DIIS enabled.
  MOM disabled.
  Fractional occupation disabled.
  Guess Type is SAD.
  Energy threshold   = 1.00e-10
  Density threshold  = 1.00e-10
  Integral threshold = 1.00e-12

  ==> Primary Basis <==

  Basis Set: AUG-CC-PVTZ
    Blend: AUG-CC-PVTZ
    Number of shells: 96
    Number of basis functions: 276
    Number of Cartesian functions: 315
    Spherical Harmonics?: true
    Max angular momentum: 3

  ==> Integral Setup <==

  Using in-core PK algorithm.
   Calculation information:
      Number of atoms:                   9
      Number of AO shells:              96
      Number of primitives:            156
      Number of atomic orbitals:       315
      Number of basis functions:       276

      Integral cutoff                 1.00e-12
      Number of threads:                 1

  Performing in-core PK
  Using 1461265302 doubles for integral storage.
  We computed 8990425 shell quartets total.
  Whereas there are 10841496 unique shell quartets.

  ==> DiskJK: Disk-Based J/K Matrices <==

    J tasked:                  Yes
    K tasked:                  Yes
    wK tasked:                  No
    Memory [MiB]:            14305
    Schwarz Cutoff:          1E-12

    OpenMP threads:              1

  Minimum eigenvalue in the overlap matrix is 1.9357795127E-04.
  Reciprocal condition number of the overlap matrix is 1.9907037397E-05.
    Using symmetric orthogonalization.

  ==> Pre-Iterations <==

  SCF Guess: Superposition of Atomic Densities via on-the-fly atomic UHF (no occupation information).

   -------------------------
    Irrep   Nso     Nmo    
   -------------------------
     A        276     276 
   -------------------------
    Total     276     276
   -------------------------

  ==> Iterations <==

                        Total Energy        Delta E     RMS |[F,P]|

   @RHF iter SAD:   -75.45071930192212   -7.54507e+01   0.00000e+00 
   @RHF iter   1:   -75.97323933475909   -5.22520e-01   1.69156e-03 DIIS/ADIIS
   @RHF iter   2:   -76.02502216219584   -5.17828e-02   1.17670e-03 DIIS/ADIIS
   @RHF iter   3:   -76.05783580318686   -3.28136e-02   8.03358e-05 DIIS
   @RHF iter   4:   -76.05825629203720   -4.20489e-04   2.00371e-05 DIIS
   @RHF iter   5:   -76.05828514335448   -2.88513e-05   4.62904e-06 DIIS
   @RHF iter   6:   -76.05828758158707   -2.43823e-06   1.02491e-06 DIIS
   @RHF iter   7:   -76.05828771213595   -1.30549e-07   1.85892e-07 DIIS
   @RHF iter   8:   -76.05828771587670   -3.74075e-09   3.19162e-08 DIIS
   @RHF iter   9:   -76.05828771596605   -8.93436e-11   8.25683e-09 DIIS
   @RHF iter  10:   -76.05828771597166   -5.61329e-12   1.15781e-09 DIIS
   @RHF iter  11:   -76.05828771597223   -5.68434e-13   1.81210e-10 DIIS
   @RHF iter  12:   -76.05828771597201    2.13163e-13   3.40424e-11 DIIS
  Energy and wave function converged.


  ==> Post-Iterations <==

    Orbital Energies [Eh]
    ---------------------

    Doubly Occupied:                                                      

       1A    -20.570023     2A     -1.341248     3A     -0.709265  
       4A     -0.577150     5A     -0.508018  

    Virtual:                                                              

       6A      0.023279     7A      0.037223     8A      0.046803  
       9A      0.050801    10A      0.071430    11A      0.073890  
      12A      0.114288    13A      0.132686    14A      0.136452  
      15A      0.146115    16A      0.156992    17A      0.160159  
      18A      0.176764    19A      0.180066    20A      0.195075  
      21A      0.201754    22A      0.207843    23A      0.226642  
      24A      0.245678    25A      0.256243    26A      0.278079  
      27A      0.281029    28A      0.300730    29A      0.303019  
      30A      0.314288    31A      0.331555    32A      0.360797  
      33A      0.362614    34A      0.367429    35A      0.378592  
      36A      0.381565    37A      0.389457    38A      0.393144  
      39A      0.412755    40A      0.424907    41A      0.430215  
      42A      0.443842    43A      0.464973    44A      0.465939  
      45A      0.482945    46A      0.508438    47A      0.525744  
      48A      0.621630    49A      0.648471    50A      0.665098  
      51A      0.689350    52A      0.717124    53A      0.738767  
      54A      0.757638    55A      0.767634    56A      0.779052  
      57A      0.787093    58A      0.801191    59A      0.801782  
      60A      0.817944    61A      0.822717    62A      0.829981  
      63A      0.849782    64A      0.854563    65A      0.860642  
      66A      0.873816    67A      0.877104    68A      0.887589  
      69A      0.905244    70A      0.911020    71A      0.928927  
      72A      0.935361    73A      0.944960    74A      0.953715  
      75A      0.960176    76A      0.968446    77A      0.984645  
      78A      1.005208    79A      1.012254    80A      1.025706  
      81A      1.032688    82A      1.048505    83A      1.057736  
      84A      1.063757    85A      1.080047    86A      1.081120  
      87A      1.100048    88A      1.106526    89A      1.139668  
      90A      1.161613    91A      1.174519    92A      1.187464  
      93A      1.201442    94A      1.221185    95A      1.235276  
      96A      1.248517    97A      1.294497    98A      1.312964  
      99A      1.334162   100A      1.362436   101A      1.386267  
     102A      1.410694   103A      1.467949   104A      1.487999  
     105A      1.507384   106A      1.557343   107A      1.586558  
     108A      1.609414   109A      1.620128   110A      1.670328  
     111A      1.690548   112A      1.710636   113A      1.723993  
     114A      1.756576   115A      1.795483   116A      1.815827  
     117A      1.817783   118A      1.830994   119A      1.848279  
     120A      1.889727   121A      1.915044   122A      1.957274  
     123A      1.983034   124A      2.023347   125A      2.060464  
     126A      2.129950   127A      2.141670   128A      2.163666  
     129A      2.311897   130A      2.370042   131A      2.451275  
     132A      2.457580   133A      2.461961   134A      2.475386  
     135A      2.483067   136A      2.507893   137A      2.531988  
     138A      2.537567   139A      2.543122   140A      2.569664  
     141A      2.594953   142A      2.616407   143A      2.631909  
     144A      2.651957   145A      2.669408   146A      2.686610  
     147A      2.714153   148A      2.727473   149A      2.754889  
     150A      2.772515   151A      2.812215   152A      2.849743  
     153A      2.877477   154A      2.911947   155A      2.938615  
     156A      2.948245   157A      2.991907   158A      3.041295  
     159A      3.161847   160A      3.167407   161A      3.206888  
     162A      3.251855   163A      3.341631   164A      3.405525  
     165A      3.425731   166A      3.428178   167A      3.453363  
     168A      3.543502   169A      3.586960   170A      3.661652  
     171A      3.691684   172A      3.796328   173A      3.816672  
     174A      3.857034   175A      4.048457   176A      4.202215  
     177A      4.227001   178A      4.270756   179A      4.357244  
     180A      4.383473   181A      4.413160   182A      4.429417  
     183A      4.455918   184A      4.475244   185A      4.482303  
     186A      4.507006   187A      4.530759   188A      4.568271  
     189A      4.589061   190A      4.615962   191A      4.629038  
     192A      4.670358   193A      4.719002   194A      4.741518  
     195A      4.813899   196A      4.863342   197A      4.872905  
     198A      4.904395   199A      4.933992   200A      4.972405  
     201A      5.030202   202A      5.059925   203A      5.104303  
     204A      5.135906   205A      5.227432   206A      5.256715  
     207A      5.272415   208A      5.282435   209A      5.333258  
     210A      5.437484   211A      5.457654   212A      5.514836  
     213A      5.520424   214A      5.525866   215A      5.539908  
     216A      5.703164   217A      5.740613   218A      5.800573  
     219A      5.850830   220A      6.130151   221A      6.163496  
     222A      6.281776   223A      6.302263   224A      6.399830  
     225A      6.482920   226A      6.565251   227A      6.669561  
     228A      6.835096   229A      6.894350   230A      6.918283  
     231A      7.051274   232A      7.155727   233A      7.284938  
     234A      7.324465   235A      7.336125   236A      7.378602  
     237A      7.413854   238A      7.554992   239A      7.682109  
     240A      7.768542   241A      7.838233   242A      7.853430  
     243A      7.877625   244A      7.916332   245A      7.989443  
     246A      8.076091   247A      8.098255   248A      8.193430  
     249A      8.222235   250A      8.280145   251A      8.607154  
     252A      8.705908   253A      8.727176   254A      8.780833  
     255A      8.918731   256A      9.613670   257A      9.817853  
     258A      9.851865   259A      9.987527   260A     10.058568  
     261A     10.144952   262A     10.300902   263A     10.311376  
     264A     11.028916   265A     11.055015   266A     11.628743  
     267A     11.678546   268A     11.871777   269A     12.141149  
     270A     13.417825   271A     13.510631   272A     13.956711  
     273A     14.044848   274A     15.472030   275A     63.823065  
     276A     65.611612  

    Final Occupation by Irrep:
              A 
    DOCC [     5 ]
    NA   [     5 ]
    NB   [     5 ]

  @RHF Final Energy:   -76.05828771597201

   => Energetics <=

    Nuclear Repulsion Energy =              8.9849419856635429
    One-Electron Energy =                -122.6750493251261105
    Two-Electron Energy =                  37.6318196234905500
    Total Energy =                        -76.0582877159720283

Computation Completed


Properties will be evaluated at   0.000000,   0.000000,   0.000000 [a0]

Properties computed using the SCF density matrix


 Multipole Moments:

 ------------------------------------------------------------------------------------
     Multipole            Electronic (a.u.)      Nuclear  (a.u.)        Total (a.u.)
 ------------------------------------------------------------------------------------

 L = 1.  Multiply by 2.5417464519 to convert [e a0] to [Debye]
 Dipole X            :         59.8762680          -59.7539071            0.1223609
 Dipole Y            :         20.0345194          -20.3913500           -0.3568306
 Dipole Z            :        -44.8793108           45.5551105            0.6757997
 Magnitude           :                                                    0.7739545

 ------------------------------------------------------------------------------------

*** tstop() called on d-19-15-2 at Tue Sep 19 14:27:02 2023
Module time:
	user time   =      72.91 seconds =       1.22 minutes
	system time =       2.51 seconds =       0.04 minutes
	total time  =         81 seconds =       1.35 minutes
Total time:
	user time   =  105245.56 seconds =    1754.09 minutes
	system time =   53820.20 seconds =     897.00 minutes
	total time  =     178718 seconds =    2978.63 minutes
 MINTS: Wrapper to libmints.
   by Justin Turney

   Calculation information:
      Number of threads:                 1
      Number of atoms:                   9
      Number of AO shells:              96
      Number of SO shells:              96
      Number of primitives:            156
      Number of atomic orbitals:       315
      Number of basis functions:       276

      Number of irreps:                  1
      Integral cutoff                 1.00e-12
      Number of functions per irrep: [ 276 ]

 OEINTS: Overlap, kinetic, potential, dipole, and quadrupole integrals
         stored in file 35.

      Computing two-electron integrals...done
      Computed 539680372 non-zero two-electron integrals.
        Stored in file 33.


*** tstart() called on d-19-15-2
*** at Tue Sep 19 14:28:08 2023


	Wfn Parameters:
	--------------------
	Wavefunction         = CCSD_T
	Number of irreps     = 1
	Number of MOs        = 276
	Number of active MOs = 276
	AO-Basis             = NONE
	Semicanonical        = false
	Reference            = RHF
	Print Level          = 1

	IRREP	# MOs	# FZDC	# DOCC	# SOCC	# VIRT	# FZVR
	-----	-----	------	------	------	------	------
	 A	   276	    0	    5	    0	    271	    0
	Transforming integrals...
	IWL integrals will be deleted.
	(OO|OO)...
	Presorting SO-basis two-electron integrals.
	Sorting File: SO Ints (nn|nn) nbuckets = 1
	Constructing frozen core operators
	Starting first half-transformation.
	Sorting half-transformed integrals.
	First half integral transformation complete.
	Starting second half-transformation.
	Two-electron integral transformation complete.
	(OO|OV)...
	Starting second half-transformation.
	Two-electron integral transformation complete.
	(OO|VV)...
	Starting second half-transformation.
	Two-electron integral transformation complete.
	(OV|OO)...
	Starting first half-transformation.
	Sorting half-transformed integrals.
	First half integral transformation complete.
	Starting second half-transformation.
	Two-electron integral transformation complete.
	(OV|OV)...
	Starting second half-transformation.
	Two-electron integral transformation complete.
	(OV|VV)...
	Starting second half-transformation.
	Two-electron integral transformation complete.
	(VV|OO)...
	Starting first half-transformation.
	Sorting half-transformed integrals.
	First half integral transformation complete.
	Starting second half-transformation.
	Two-electron integral transformation complete.
	(VV|OV)...
	Starting second half-transformation.
	Two-electron integral transformation complete.
	(VV|VV)...
	Starting second half-transformation.
	Two-electron integral transformation complete.
	Frozen core energy     =      0.00000000000000

	Size of irrep 0 of <ab|cd> integrals:   5393.580 (MW) /  43148.644 (MB)
	Total:                                  5393.580 (MW) /  43148.644 (MB)

	Size of irrep 0 of <ia|bc> integrals:     99.513 (MW) /    796.100 (MB)
	Total:                                    99.513 (MW) /    796.100 (MB)

	Size of irrep 0 of tijab amplitudes:       1.836 (MW) /     14.688 (MB)
	Total:                                     1.836 (MW) /     14.688 (MB)

	Nuclear Rep. energy          =      8.98494198566354
	SCF energy                   =    -76.05828771597201
	One-electron energy          =   -122.67504933454755
	Two-electron energy          =     37.63181963291200
	Reference energy             =    -76.05828771597201

*** tstop() called on d-19-15-2 at Tue Sep 19 14:42:01 2023
Module time:
	user time   =     502.70 seconds =       8.38 minutes
	system time =     269.31 seconds =       4.49 minutes
	total time  =        833 seconds =      13.88 minutes
Total time:
	user time   =  105791.69 seconds =    1763.19 minutes
	system time =   54103.83 seconds =     901.73 minutes
	total time  =     179617 seconds =    2993.62 minutes
            **************************
            *                        *
            *        CCENERGY        *
            *                        *
            **************************

    Nuclear Rep. energy (wfn)     =    8.984941985663543
    SCF energy          (wfn)     =  -76.058287715972014
    Reference energy    (file100) =  -76.058287715972014

    Input parameters:
    -----------------
    Wave function   =     CCSD_T
    Reference wfn   =     RHF
    Brueckner       =     No
    Memory (Mbytes) =     20000.0
    Maxiter         =     50
    R_Convergence   =     1.0e-07
    E_Convergence   =     1.0e-10
    Restart         =     Yes
    DIIS            =     Yes
    AO Basis        =     NONE
    ABCD            =     NEW
    Cache Level     =     2
    Cache Type      =     LOW
    Print Level     =     1
    Num. of threads =     1
    # Amps to Print =     10
    Print MP2 Amps? =     No
    Analyze T2 Amps =     No
    Print Pair Ener =     No
    Local CC        =     No
    SCS-MP2         =     False
    SCSN-MP2        =     False
    SCS-CCSD        =     False

MP2 correlation energy -0.2854523734906901
                Solving CC Amplitude Equations
                ------------------------------
  Iter             Energy              RMS        T1Diag      D1Diag    New D1Diag    D2Diag
  ----     ---------------------    ---------   ----------  ----------  ----------   --------
     0        -0.285452373490690    0.000e+00    0.000000    0.000000    0.000000    0.119522
     1        -0.283371849351642    3.635e-02    0.007783    0.017545    0.017545    0.122053
     2        -0.288572186751586    1.295e-02    0.007616    0.017311    0.017311    0.126724
     3        -0.289979476623739    5.090e-03    0.008846    0.020654    0.020654    0.129004
     4        -0.289845738636968    1.111e-03    0.009007    0.021125    0.021125    0.129200
     5        -0.289857588570642    4.192e-04    0.009096    0.021435    0.021435    0.129258
     6        -0.289865336573461    1.091e-04    0.009120    0.021522    0.021522    0.129256
     7        -0.289863409769043    3.928e-05    0.009125    0.021544    0.021544    0.129247
     8        -0.289862774886131    1.187e-05    0.009126    0.021550    0.021550    0.129245
     9        -0.289862916233659    4.584e-06    0.009127    0.021553    0.021553    0.129245
    10        -0.289862698778509    1.772e-06    0.009127    0.021553    0.021553    0.129245
    11        -0.289862694870435    6.110e-07    0.009127    0.021553    0.021553    0.129245
    12        -0.289862685225294    2.738e-07    0.009127    0.021553    0.021553    0.129245
    13        -0.289862680483357    9.832e-08    0.009127    0.021553    0.021553    0.129245
    14        -0.289862680308745    3.593e-08    0.009127    0.021553    0.021553    0.129245
    15        -0.289862680572004    1.282e-08    0.009127    0.021553    0.021553    0.129245
    16        -0.289862680527469    4.786e-09    0.009127    0.021553    0.021553    0.129245
    17        -0.289862680514636    1.651e-09    0.009127    0.021553    0.021553    0.129245

    Iterations converged.


    Largest TIA Amplitudes:
              4  12        -0.0093931592
              4   5         0.0052868060
              4   6        -0.0052057650
              4   8         0.0050348816
              4   7        -0.0050240729
              2 118        -0.0048265694
              4  41         0.0045620792
              4  31         0.0041406074
              4  48         0.0040497419
              4  22        -0.0040005911

    Largest TIjAb Amplitudes:
      2   2  38  38        -0.0150898132
      2   2  42  42        -0.0129485830
      3   3  42  42        -0.0114567215
      2   2  44  44        -0.0103673503
      2   2  37  37        -0.0100006787
      2   2  38  42        -0.0094084842
      2   2  42  38        -0.0094084842
      2   2  38  76        -0.0079149866
      2   2  76  38        -0.0079149866
      2   2  37  38         0.0078638313

    SCF energy       (wfn)                    =  -76.058287715972014
    Reference energy (file100)                =  -76.058287715972014

    Opposite-spin MP2 correlation energy      =   -0.216729573623646
    Same-spin MP2 correlation energy          =   -0.068722799867045
    Singles MP2 correlation energy            =   -0.000000000000000
    MP2 correlation energy                    =   -0.285452373490690
      * MP2 total energy                      =  -76.343740089462699

    Opposite-spin CCSD correlation energy     =   -0.228791881076095
    Same-spin CCSD correlation energy         =   -0.061070799438541
    Singles CCSD correlation energy           =    0.000000000000000
    CCSD correlation energy                   =   -0.289862680514636
      * CCSD total energy                     =  -76.348150396486645

            **************************
            *                        *
            *        CCTRIPLES       *
            *                        *
            **************************


    Wave function   =    CCSD_T
    Reference wfn   =      RHF

    Nuclear Rep. energy (wfn)                =    8.984941985663543
    SCF energy          (wfn)                =  -76.058287715972014
    Reference energy    (file100)            =  -76.058287715972014
    CCSD energy         (file100)            =   -0.289862680514636
    Total CCSD energy   (file100)            =  -76.348150396486645

    Number of ijk index combinations:               35
    Memory available in words               :      2500000000
    Approx. words needed per explicit thread:        79610044
    Number of threads for explicit ijk threading:    1

    MKL num_threads set to 1 for explicit threading.

    (T) energy                                =   -0.009002285942122
      * CCSD(T) total energy                  =  -76.357152682428776


    Psi4 stopped on: Tuesday, 19 September 2023 02:51PM
    Psi4 wall time for execution: 0:25:41.74


    -----------------------------------------------------------------------
          Psi4: An Open-Source Ab Initio Electronic Structure Package
                               Psi4 1.7 release

                         Git: Rev {HEAD} 6ce35a5 


    D. G. A. Smith, L. A. Burns, A. C. Simmonett, R. M. Parrish,
    M. C. Schieber, R. Galvelis, P. Kraus, H. Kruse, R. Di Remigio,
    A. Alenaizan, A. M. James, S. Lehtola, J. P. Misiewicz, M. Scheurer,
    R. A. Shaw, J. B. Schriber, Y. Xie, Z. L. Glick, D. A. Sirianni,
    J. S. O'Brien, J. M. Waldrop, A. Kumar, E. G. Hohenstein,
    B. P. Pritchard, B. R. Brooks, H. F. Schaefer III, A. Yu. Sokolov,
    K. Patkowski, A. E. DePrince III, U. Bozkaya, R. A. King,
    F. A. Evangelista, J. M. Turney, T. D. Crawford, C. D. Sherrill,
    J. Chem. Phys. 152(18) 184108 (2020). https://doi.org/10.1063/5.0006002

                            Additional Code Authors
    E. T. Seidl, C. L. Janssen, E. F. Valeev, M. L. Leininger,
    J. F. Gonthier, R. M. Richard, H. R. McAlexander, M. Saitow, X. Wang,
    P. Verma, M. H. Lechner, A. Jiang, S. Behnle, A. G. Heide,
    M. F. Herbst, and D. L. Poole

             Previous Authors, Complete List of Code Contributors,
                       and Citations for Specific Modules
    https://github.com/psi4/psi4/blob/master/codemeta.json
    https://github.com/psi4/psi4/graphs/contributors
    http://psicode.org/psi4manual/master/introduction.html#citing-psifour

    -----------------------------------------------------------------------


    Psi4 started on: Sunday, 17 September 2023 12:48PM

    Process ID: 258105
    Host:       d-19-15-2
    PSIDATADIR: /home/gridsan/kfisher/.conda/envs/p4env/share/psi4
    Memory:     18.6 GiB
    Threads:    1
    
  ==> Input QCSchema <==

--------------------------------------------------------------------------
{'driver': 'energy',
 'extras': {'psiapi': True, 'wfn_qcvars_only': True},
 'id': None,
 'keywords': {'D_CONVERGENCE': 1e-10, 'E_CONVERGENCE': 1e-10, 'function_kwargs': {}},
 'model': {'basis': 'aug-cc-pvtz', 'method': 'ccsd(t)'},
 'molecule': {'atom_labels': ['', '', '', '', '', '', '', '', ''],
              'atomic_numbers': [1, 1, 8, 1, 1, 8, 1, 1, 8],
              'fix_com': True,
              'fix_orientation': True,
              'fix_symmetry': 'c1',
              'fragment_charges': [0.0, 0.0, 0.0],
              'fragment_multiplicities': [1, 1, 1],
              'fragments': [[0, 1, 2], [3, 4, 5], [6, 7, 8]],
              'geometry': [-4.395668451131715, -2.556518842312072, 5.004012468048863, -7.276735604552182,
                           -2.340374368034385, 5.656810440135804, -6.010187883890869, -1.9368071022981868,
                           4.3617859451611745, -6.2618102654205146, -2.979964174956484, 0.46718064386595365,
                           -6.10548093314398, -2.2969725556794636, -2.4562973495292453, -6.10055439823765,
                           -3.722620740802205, -1.202151240025168, -2.438538383703597, -9.023254674845916,
                           -2.2117024626176915, -2.889662024681536, -6.1907447334177546, -1.703594489374536,
                           -1.5037616396830085, -7.481255523055421, -1.6677074564164167],
              'mass_numbers': [1, 1, 16, 1, 1, 16, 1, 1, 16],
              'masses': [1.00782503223, 1.00782503223, 15.99491461957, 1.00782503223, 1.00782503223, 15.99491461957,
                         1.00782503223, 1.00782503223, 15.99491461957],
              'molecular_charge': 0.0,
              'molecular_multiplicity': 1,
              'name': 'H6O3',
              'provenance': {'creator': 'QCElemental',
                             'routine': 'qcelemental.molparse.from_string',
                             'version': 'v0.25.1'},
              'real': [False, False, False, True, True, True, False, False, False],
              'schema_name': 'qcschema_molecule',
              'schema_version': 2,
              'symbols': ['H', 'H', 'O', 'H', 'H', 'O', 'H', 'H', 'O'],
              'validated': True},
 'protocols': {'stdout': True},
 'provenance': {'creator': 'QCElemental', 'routine': 'qcelemental.models.results', 'version': 'v0.25.1'},
 'schema_name': 'qcschema_input',
 'schema_version': 1}
--------------------------------------------------------------------------

Scratch directory: /home/gridsan/kfisher/scratch/

*** tstart() called on d-19-15-2
*** at Tue Sep 19 14:51:23 2023

   => Loading Basis Set <=

    Name: AUG-CC-PVTZ
    Role: ORBITAL
    Keyword: BASIS
    atoms 1-2, 4-5, 7-8 entry H          line    40 file /home/gridsan/kfisher/.conda/envs/p4env/share/psi4/basis/aug-cc-pvtz.gbs 
    atoms 3, 6, 9       entry O          line   331 file /home/gridsan/kfisher/.conda/envs/p4env/share/psi4/basis/aug-cc-pvtz.gbs 


         ---------------------------------------------------------
                                   SCF
               by Justin Turney, Rob Parrish, Andy Simmonett
                          and Daniel G. A. Smith
                              RHF Reference
                        1 Threads,  19073 MiB Core
         ---------------------------------------------------------

  ==> Geometry <==

    Molecular point group: c1
    Full point group: C1

    Geometry (in Bohr), charge = 0, multiplicity = 1:

       Center              X                  Y                   Z               Mass       
    ------------   -----------------  -----------------  -----------------  -----------------
      Gh(H)          -4.395668451132    -2.556518842312     5.004012468049     1.007825032230
      Gh(H)          -7.276735604552    -2.340374368034     5.656810440136     1.007825032230
      Gh(O)          -6.010187883891    -1.936807102298     4.361785945161    15.994914619570
         H           -6.261810265421    -2.979964174956     0.467180643866     1.007825032230
         H           -6.105480933144    -2.296972555679    -2.456297349529     1.007825032230
         O           -6.100554398238    -3.722620740802    -1.202151240025    15.994914619570
      Gh(H)          -2.438538383704    -9.023254674846    -2.211702462618     1.007825032230
      Gh(H)          -2.889662024682    -6.190744733418    -1.703594489375     1.007825032230
      Gh(O)          -1.503761639683    -7.481255523055    -1.667707456416    15.994914619570

  Running in c1 symmetry.

  Rotational constants: A =      0.06318  B =      0.02564  C =      0.02019 [cm^-1]
  Rotational constants: A =   1894.04778  B =    768.69883  C =    605.32539 [MHz]
  Nuclear repulsion =    8.907487348629633

  Charge       = 0
  Multiplicity = 1
  Electrons    = 10
  Nalpha       = 5
  Nbeta        = 5

  ==> Algorithm <==

  SCF Algorithm Type is PK.
  DIIS enabled.
  MOM disabled.
  Fractional occupation disabled.
  Guess Type is SAD.
  Energy threshold   = 1.00e-10
  Density threshold  = 1.00e-10
  Integral threshold = 1.00e-12

  ==> Primary Basis <==

  Basis Set: AUG-CC-PVTZ
    Blend: AUG-CC-PVTZ
    Number of shells: 96
    Number of basis functions: 276
    Number of Cartesian functions: 315
    Spherical Harmonics?: true
    Max angular momentum: 3

  ==> Integral Setup <==

  Using in-core PK algorithm.
   Calculation information:
      Number of atoms:                   9
      Number of AO shells:              96
      Number of primitives:            156
      Number of atomic orbitals:       315
      Number of basis functions:       276

      Integral cutoff                 1.00e-12
      Number of threads:                 1

  Performing in-core PK
  Using 1461265302 doubles for integral storage.
  We computed 8990425 shell quartets total.
  Whereas there are 10841496 unique shell quartets.

  ==> DiskJK: Disk-Based J/K Matrices <==

    J tasked:                  Yes
    K tasked:                  Yes
    wK tasked:                  No
    Memory [MiB]:            14305
    Schwarz Cutoff:          1E-12

    OpenMP threads:              1

  Minimum eigenvalue in the overlap matrix is 1.9357795127E-04.
  Reciprocal condition number of the overlap matrix is 1.9907037397E-05.
    Using symmetric orthogonalization.

  ==> Pre-Iterations <==

  SCF Guess: Superposition of Atomic Densities via on-the-fly atomic UHF (no occupation information).

   -------------------------
    Irrep   Nso     Nmo    
   -------------------------
     A        276     276 
   -------------------------
    Total     276     276
   -------------------------

  ==> Iterations <==

                        Total Energy        Delta E     RMS |[F,P]|

   @RHF iter SAD:   -75.43945976299115   -7.54395e+01   0.00000e+00 
   @RHF iter   1:   -75.97080298724964   -5.31343e-01   1.69090e-03 DIIS/ADIIS
   @RHF iter   2:   -76.02236154752109   -5.15586e-02   1.18713e-03 DIIS/ADIIS
   @RHF iter   3:   -76.05588660302149   -3.35251e-02   8.11962e-05 DIIS
   @RHF iter   4:   -76.05632408077953   -4.37478e-04   2.06869e-05 DIIS
   @RHF iter   5:   -76.05635554067652   -3.14599e-05   4.83277e-06 DIIS
   @RHF iter   6:   -76.05635825649263   -2.71582e-06   1.07848e-06 DIIS
   @RHF iter   7:   -76.05635840360003   -1.47107e-07   1.96397e-07 DIIS
   @RHF iter   8:   -76.05635840782902   -4.22899e-09   3.42297e-08 DIIS
   @RHF iter   9:   -76.05635840793586   -1.06837e-10   9.09535e-09 DIIS
   @RHF iter  10:   -76.05635840794274   -6.87805e-12   1.30725e-09 DIIS
   @RHF iter  11:   -76.05635840794321   -4.68958e-13   2.55242e-10 DIIS
   @RHF iter  12:   -76.05635840794295    2.55795e-13   6.09632e-11 DIIS
  Energy and wave function converged.


  ==> Post-Iterations <==

    Orbital Energies [Eh]
    ---------------------

    Doubly Occupied:                                                      

       1A    -20.570962     2A     -1.336740     3A     -0.706403  
       4A     -0.573623     5A     -0.507075  

    Virtual:                                                              

       6A      0.021075     7A      0.039923     8A      0.044154  
       9A      0.051156    10A      0.068746    11A      0.074562  
      12A      0.108123    13A      0.120802    14A      0.139957  
      15A      0.146509    16A      0.155401    17A      0.157610  
      18A      0.170302    19A      0.179469    20A      0.192691  
      21A      0.194508    22A      0.218015    23A      0.229972  
      24A      0.255079    25A      0.261625    26A      0.279831  
      27A      0.285555    28A      0.291200    29A      0.301511  
      30A      0.320771    31A      0.324578    32A      0.344196  
      33A      0.353889    34A      0.366030    35A      0.370034  
      36A      0.375682    37A      0.382337    38A      0.393736  
      39A      0.396628    40A      0.410078    41A      0.422507  
      42A      0.438259    43A      0.445220    44A      0.465399  
      45A      0.485267    46A      0.517141    47A      0.565712  
      48A      0.618827    49A      0.638510    50A      0.678159  
      51A      0.694916    52A      0.703747    53A      0.735425  
      54A      0.747742    55A      0.762638    56A      0.769494  
      57A      0.777508    58A      0.788435    59A      0.803282  
      60A      0.811543    61A      0.812398    62A      0.829826  
      63A      0.833096    64A      0.837142    65A      0.855846  
      66A      0.865419    67A      0.879647    68A      0.884582  
      69A      0.900326    70A      0.907491    71A      0.914793  
      72A      0.928038    73A      0.940207    74A      0.962419  
      75A      0.973590    76A      0.980021    77A      0.988663  
      78A      1.001384    79A      1.009403    80A      1.015346  
      81A      1.030946    82A      1.042367    83A      1.050881  
      84A      1.064053    85A      1.071634    86A      1.076513  
      87A      1.107807    88A      1.117915    89A      1.145464  
      90A      1.148798    91A      1.171617    92A      1.191146  
      93A      1.194340    94A      1.235940    95A      1.243118  
      96A      1.250005    97A      1.265139    98A      1.306972  
      99A      1.328643   100A      1.368147   101A      1.379684  
     102A      1.411488   103A      1.438000   104A      1.455714  
     105A      1.479855   106A      1.535973   107A      1.552804  
     108A      1.611292   109A      1.645175   110A      1.661218  
     111A      1.704233   112A      1.723313   113A      1.733269  
     114A      1.754313   115A      1.757040   116A      1.782478  
     117A      1.803618   118A      1.831983   119A      1.849209  
     120A      1.880000   121A      1.897833   122A      1.927733  
     123A      1.981637   124A      2.014698   125A      2.020816  
     126A      2.081096   127A      2.142851   128A      2.299737  
     129A      2.351085   130A      2.398256   131A      2.443808  
     132A      2.448190   133A      2.459802   134A      2.472985  
     135A      2.494643   136A      2.505133   137A      2.518795  
     138A      2.533690   139A      2.549201   140A      2.570986  
     141A      2.579749   142A      2.592523   143A      2.619149  
     144A      2.651056   145A      2.669722   146A      2.672112  
     147A      2.697178   148A      2.719738   149A      2.736052  
     150A      2.796487   151A      2.823948   152A      2.848986  
     153A      2.865846   154A      2.924847   155A      2.962597  
     156A      2.989357   157A      3.002200   158A      3.086498  
     159A      3.164747   160A      3.177122   161A      3.179935  
     162A      3.186519   163A      3.264027   164A      3.312744  
     165A      3.344639   166A      3.367243   167A      3.424518  
     168A      3.435833   169A      3.537233   170A      3.597726  
     171A      3.678137   172A      3.730352   173A      3.818854  
     174A      4.011920   175A      4.056304   176A      4.224763  
     177A      4.250350   178A      4.286341   179A      4.352675  
     180A      4.393020   181A      4.408627   182A      4.422421  
     183A      4.457431   184A      4.494050   185A      4.508021  
     186A      4.517858   187A      4.539193   188A      4.552337  
     189A      4.584402   190A      4.618318   191A      4.630130  
     192A      4.645461   193A      4.653741   194A      4.719451  
     195A      4.823550   196A      4.878143   197A      4.892834  
     198A      4.915082   199A      4.939398   200A      4.949086  
     201A      5.007335   202A      5.020098   203A      5.046406  
     204A      5.103803   205A      5.123361   206A      5.218771  
     207A      5.267338   208A      5.324193   209A      5.349694  
     210A      5.445671   211A      5.472216   212A      5.502352  
     213A      5.533093   214A      5.555090   215A      5.566650  
     216A      5.679151   217A      5.771316   218A      5.805702  
     219A      5.826623   220A      6.112784   221A      6.162683  
     222A      6.269366   223A      6.312834   224A      6.330884  
     225A      6.492108   226A      6.585473   227A      6.606545  
     228A      6.839942   229A      6.897159   230A      6.965014  
     231A      7.001342   232A      7.144728   233A      7.284253  
     234A      7.329364   235A      7.360160   236A      7.410708  
     237A      7.512402   238A      7.662344   239A      7.699499  
     240A      7.733650   241A      7.786007   242A      7.842347  
     243A      7.916523   244A      7.988486   245A      8.004854  
     246A      8.059964   247A      8.091355   248A      8.147235  
     249A      8.235161   250A      8.247344   251A      8.627805  
     252A      8.647279   253A      8.701483   254A      8.714833  
     255A      8.799285   256A      9.643356   257A      9.738438  
     258A      9.869369   259A      9.940973   260A      9.993440  
     261A     10.074796   262A     10.199699   263A     10.319635  
     264A     11.056795   265A     11.078774   266A     11.649985  
     267A     11.738060   268A     11.764545   269A     11.990529  
     270A     13.378417   271A     13.431533   272A     13.832917  
     273A     13.971811   274A     15.986652   275A     64.029073  
     276A     64.153916  

    Final Occupation by Irrep:
              A 
    DOCC [     5 ]
    NA   [     5 ]
    NB   [     5 ]

  @RHF Final Energy:   -76.05635840794295

   => Energetics <=

    Nuclear Repulsion Energy =              8.9074873486296333
    One-Electron Energy =                -122.5380853329903346
    Two-Electron Energy =                  37.5742395764177601
    Total Energy =                        -76.0563584079429518

Computation Completed


Properties will be evaluated at   0.000000,   0.000000,   0.000000 [a0]

Properties computed using the SCF density matrix


 Multipole Moments:

 ------------------------------------------------------------------------------------
     Multipole            Electronic (a.u.)      Nuclear  (a.u.)        Total (a.u.)
 ------------------------------------------------------------------------------------

 L = 1.  Multiply by 2.5417464519 to convert [e a0] to [Debye]
 Dipole X            :         61.1132154          -61.1717264           -0.0585110
 Dipole Y            :         35.8112256          -35.0579027            0.7533230
 Dipole Z            :         11.7560865          -11.6063266            0.1497598
 Magnitude           :                                                    0.7702902

 ------------------------------------------------------------------------------------

*** tstop() called on d-19-15-2 at Tue Sep 19 14:52:45 2023
Module time:
	user time   =      75.88 seconds =       1.26 minutes
	system time =       5.11 seconds =       0.09 minutes
	total time  =         82 seconds =       1.37 minutes
Total time:
	user time   =  106129.39 seconds =    1768.82 minutes
	system time =   54372.09 seconds =     906.20 minutes
	total time  =     180261 seconds =    3004.35 minutes
 MINTS: Wrapper to libmints.
   by Justin Turney

   Calculation information:
      Number of threads:                 1
      Number of atoms:                   9
      Number of AO shells:              96
      Number of SO shells:              96
      Number of primitives:            156
      Number of atomic orbitals:       315
      Number of basis functions:       276

      Number of irreps:                  1
      Integral cutoff                 1.00e-12
      Number of functions per irrep: [ 276 ]

 OEINTS: Overlap, kinetic, potential, dipole, and quadrupole integrals
         stored in file 35.

      Computing two-electron integrals...done
      Computed 539680372 non-zero two-electron integrals.
        Stored in file 33.


*** tstart() called on d-19-15-2
*** at Tue Sep 19 14:53:41 2023


	Wfn Parameters:
	--------------------
	Wavefunction         = CCSD_T
	Number of irreps     = 1
	Number of MOs        = 276
	Number of active MOs = 276
	AO-Basis             = NONE
	Semicanonical        = false
	Reference            = RHF
	Print Level          = 1

	IRREP	# MOs	# FZDC	# DOCC	# SOCC	# VIRT	# FZVR
	-----	-----	------	------	------	------	------
	 A	   276	    0	    5	    0	    271	    0
	Transforming integrals...
	IWL integrals will be deleted.
	(OO|OO)...
	Presorting SO-basis two-electron integrals.
	Sorting File: SO Ints (nn|nn) nbuckets = 1
	Constructing frozen core operators
	Starting first half-transformation.
	Sorting half-transformed integrals.
	First half integral transformation complete.
	Starting second half-transformation.
	Two-electron integral transformation complete.
	(OO|OV)...
	Starting second half-transformation.
	Two-electron integral transformation complete.
	(OO|VV)...
	Starting second half-transformation.
	Two-electron integral transformation complete.
	(OV|OO)...
	Starting first half-transformation.
	Sorting half-transformed integrals.
	First half integral transformation complete.
	Starting second half-transformation.
	Two-electron integral transformation complete.
	(OV|OV)...
	Starting second half-transformation.
	Two-electron integral transformation complete.
	(OV|VV)...
	Starting second half-transformation.
	Two-electron integral transformation complete.
	(VV|OO)...
	Starting first half-transformation.
	Sorting half-transformed integrals.
	First half integral transformation complete.
	Starting second half-transformation.
	Two-electron integral transformation complete.
	(VV|OV)...
	Starting second half-transformation.
	Two-electron integral transformation complete.
	(VV|VV)...
	Starting second half-transformation.
	Two-electron integral transformation complete.
	Frozen core energy     =      0.00000000000000

	Size of irrep 0 of <ab|cd> integrals:   5393.580 (MW) /  43148.644 (MB)
	Total:                                  5393.580 (MW) /  43148.644 (MB)

	Size of irrep 0 of <ia|bc> integrals:     99.513 (MW) /    796.100 (MB)
	Total:                                    99.513 (MW) /    796.100 (MB)

	Size of irrep 0 of tijab amplitudes:       1.836 (MW) /     14.688 (MB)
	Total:                                     1.836 (MW) /     14.688 (MB)

	Nuclear Rep. energy          =      8.90748734862963
	SCF energy                   =    -76.05635840794295
	One-electron energy          =   -122.53808533701124
	Two-electron energy          =     37.57423958043842
	Reference energy             =    -76.05635840794319

*** tstop() called on d-19-15-2 at Tue Sep 19 15:10:44 2023
Module time:
	user time   =     523.53 seconds =       8.73 minutes
	system time =     348.50 seconds =       5.81 minutes
	total time  =       1023 seconds =      17.05 minutes
Total time:
	user time   =  106695.35 seconds =    1778.26 minutes
	system time =   54733.63 seconds =     912.23 minutes
	total time  =     181340 seconds =    3022.33 minutes
            **************************
            *                        *
            *        CCENERGY        *
            *                        *
            **************************

    Nuclear Rep. energy (wfn)     =    8.907487348629633
    SCF energy          (wfn)     =  -76.056358407942952
    Reference energy    (file100) =  -76.056358407943193

    Input parameters:
    -----------------
    Wave function   =     CCSD_T
    Reference wfn   =     RHF
    Brueckner       =     No
    Memory (Mbytes) =     20000.0
    Maxiter         =     50
    R_Convergence   =     1.0e-07
    E_Convergence   =     1.0e-10
    Restart         =     Yes
    DIIS            =     Yes
    AO Basis        =     NONE
    ABCD            =     NEW
    Cache Level     =     2
    Cache Type      =     LOW
    Print Level     =     1
    Num. of threads =     1
    # Amps to Print =     10
    Print MP2 Amps? =     No
    Analyze T2 Amps =     No
    Print Pair Ener =     No
    Local CC        =     No
    SCS-MP2         =     False
    SCSN-MP2        =     False
    SCS-CCSD        =     False

MP2 correlation energy -0.2865213651350528
                Solving CC Amplitude Equations
                ------------------------------
  Iter             Energy              RMS        T1Diag      D1Diag    New D1Diag    D2Diag
  ----     ---------------------    ---------   ----------  ----------  ----------   --------
     0        -0.286521365135053    0.000e+00    0.000000    0.000000    0.000000    0.121258
     1        -0.284256862002253    3.681e-02    0.007879    0.017765    0.017765    0.123697
     2        -0.289546070381390    1.322e-02    0.007705    0.017511    0.017511    0.128675
     3        -0.290991507963689    5.213e-03    0.008961    0.020918    0.020918    0.131124
     4        -0.290856865314157    1.151e-03    0.009124    0.021395    0.021395    0.131370
     5        -0.290868043656510    4.392e-04    0.009215    0.021707    0.021707    0.131449
     6        -0.290876688484973    1.193e-04    0.009240    0.021797    0.021797    0.131452
     7        -0.290874958104435    4.411e-05    0.009246    0.021821    0.021821    0.131443
     8        -0.290874181626228    1.379e-05    0.009247    0.021827    0.021827    0.131441
     9        -0.290874336562577    5.261e-06    0.009248    0.021830    0.021830    0.131441
    10        -0.290874100625626    2.015e-06    0.009248    0.021830    0.021830    0.131441
    11        -0.290874095318975    7.042e-07    0.009248    0.021830    0.021830    0.131441
    12        -0.290874084196100    3.077e-07    0.009248    0.021830    0.021830    0.131441
    13        -0.290874078948100    1.038e-07    0.009248    0.021830    0.021830    0.131441
    14        -0.290874078840076    3.560e-08    0.009248    0.021830    0.021830    0.131441
    15        -0.290874079016522    1.266e-08    0.009248    0.021830    0.021830    0.131441
    16        -0.290874078941297    4.536e-09    0.009248    0.021830    0.021830    0.131441
    17        -0.290874078931995    1.702e-09    0.009248    0.021830    0.021830    0.131441

    Iterations converged.


    Largest TIA Amplitudes:
              4  11         0.0071709110
              4   9        -0.0068400281
              4  13        -0.0062404078
              4  33         0.0051373107
              4  40        -0.0046186834
              3  10         0.0045516248
              4   3        -0.0043784630
              4  15         0.0043778105
              3  26         0.0040817609
              4  16         0.0039345989

    Largest TIjAb Amplitudes:
      2   2  42  42        -0.0157860658
      3   3  42  42        -0.0110128893
      2   2  37  37        -0.0097069863
      2   2  45  45        -0.0093768241
      2   2  38  38        -0.0072827547
      2   3  45  42        -0.0067706075
      3   2  42  45        -0.0067706075
      0   0 268 268        -0.0067022312
      2   2  37  38         0.0066668950
      2   2  38  37         0.0066668950

    SCF energy       (wfn)                    =  -76.056358407942952
    Reference energy (file100)                =  -76.056358407943193

    Opposite-spin MP2 correlation energy      =   -0.217635291868597
    Same-spin MP2 correlation energy          =   -0.068886073266456
    Singles MP2 correlation energy            =   -0.000000000000000
    MP2 correlation energy                    =   -0.286521365135053
      * MP2 total energy                      =  -76.342879773078252

    Opposite-spin CCSD correlation energy     =   -0.229754379275288
    Same-spin CCSD correlation energy         =   -0.061119699656707
    Singles CCSD correlation energy           =    0.000000000000000
    CCSD correlation energy                   =   -0.290874078931995
      * CCSD total energy                     =  -76.347232486875185

            **************************
            *                        *
            *        CCTRIPLES       *
            *                        *
            **************************


    Wave function   =    CCSD_T
    Reference wfn   =      RHF

    Nuclear Rep. energy (wfn)                =    8.907487348629633
    SCF energy          (wfn)                =  -76.056358407942952
    Reference energy    (file100)            =  -76.056358407943193
    CCSD energy         (file100)            =   -0.290874078931995
    Total CCSD energy   (file100)            =  -76.347232486875185

    Number of ijk index combinations:               35
    Memory available in words               :      2500000000
    Approx. words needed per explicit thread:        79610044
    Number of threads for explicit ijk threading:    1

    MKL num_threads set to 1 for explicit threading.

    (T) energy                                =   -0.009100033028076
      * CCSD(T) total energy                  =  -76.356332519903262


    Psi4 stopped on: Tuesday, 19 September 2023 03:24PM
    Psi4 wall time for execution: 0:33:05.49


    -----------------------------------------------------------------------
          Psi4: An Open-Source Ab Initio Electronic Structure Package
                               Psi4 1.7 release

                         Git: Rev {HEAD} 6ce35a5 


    D. G. A. Smith, L. A. Burns, A. C. Simmonett, R. M. Parrish,
    M. C. Schieber, R. Galvelis, P. Kraus, H. Kruse, R. Di Remigio,
    A. Alenaizan, A. M. James, S. Lehtola, J. P. Misiewicz, M. Scheurer,
    R. A. Shaw, J. B. Schriber, Y. Xie, Z. L. Glick, D. A. Sirianni,
    J. S. O'Brien, J. M. Waldrop, A. Kumar, E. G. Hohenstein,
    B. P. Pritchard, B. R. Brooks, H. F. Schaefer III, A. Yu. Sokolov,
    K. Patkowski, A. E. DePrince III, U. Bozkaya, R. A. King,
    F. A. Evangelista, J. M. Turney, T. D. Crawford, C. D. Sherrill,
    J. Chem. Phys. 152(18) 184108 (2020). https://doi.org/10.1063/5.0006002

                            Additional Code Authors
    E. T. Seidl, C. L. Janssen, E. F. Valeev, M. L. Leininger,
    J. F. Gonthier, R. M. Richard, H. R. McAlexander, M. Saitow, X. Wang,
    P. Verma, M. H. Lechner, A. Jiang, S. Behnle, A. G. Heide,
    M. F. Herbst, and D. L. Poole

             Previous Authors, Complete List of Code Contributors,
                       and Citations for Specific Modules
    https://github.com/psi4/psi4/blob/master/codemeta.json
    https://github.com/psi4/psi4/graphs/contributors
    http://psicode.org/psi4manual/master/introduction.html#citing-psifour

    -----------------------------------------------------------------------


    Psi4 started on: Sunday, 17 September 2023 12:48PM

    Process ID: 258105
    Host:       d-19-15-2
    PSIDATADIR: /home/gridsan/kfisher/.conda/envs/p4env/share/psi4
    Memory:     18.6 GiB
    Threads:    1
    
  ==> Input QCSchema <==

--------------------------------------------------------------------------
{'driver': 'energy',
 'extras': {'psiapi': True, 'wfn_qcvars_only': True},
 'id': None,
 'keywords': {'D_CONVERGENCE': 1e-10, 'E_CONVERGENCE': 1e-10, 'function_kwargs': {}},
 'model': {'basis': 'aug-cc-pvtz', 'method': 'ccsd(t)'},
 'molecule': {'atom_labels': ['', '', '', '', '', '', '', '', ''],
              'atomic_numbers': [1, 1, 8, 1, 1, 8, 1, 1, 8],
              'fix_com': True,
              'fix_orientation': True,
              'fix_symmetry': 'c1',
              'fragment_charges': [0.0, 0.0, 0.0],
              'fragment_multiplicities': [1, 1, 1],
              'fragments': [[0, 1, 2], [3, 4, 5], [6, 7, 8]],
              'geometry': [-4.395668451131715, -2.556518842312072, 5.004012468048863, -7.276735604552182,
                           -2.340374368034385, 5.656810440135804, -6.010187883890869, -1.9368071022981868,
                           4.3617859451611745, -6.2618102654205146, -2.979964174956484, 0.46718064386595365,
                           -6.10548093314398, -2.2969725556794636, -2.4562973495292453, -6.10055439823765,
                           -3.722620740802205, -1.202151240025168, -2.438538383703597, -9.023254674845916,
                           -2.2117024626176915, -2.889662024681536, -6.1907447334177546, -1.703594489374536,
                           -1.5037616396830085, -7.481255523055421, -1.6677074564164167],
              'mass_numbers': [1, 1, 16, 1, 1, 16, 1, 1, 16],
              'masses': [1.00782503223, 1.00782503223, 15.99491461957, 1.00782503223, 1.00782503223, 15.99491461957,
                         1.00782503223, 1.00782503223, 15.99491461957],
              'molecular_charge': 0.0,
              'molecular_multiplicity': 1,
              'name': 'H6O3',
              'provenance': {'creator': 'QCElemental',
                             'routine': 'qcelemental.molparse.from_string',
                             'version': 'v0.25.1'},
              'real': [False, False, False, True, True, True, True, True, True],
              'schema_name': 'qcschema_molecule',
              'schema_version': 2,
              'symbols': ['H', 'H', 'O', 'H', 'H', 'O', 'H', 'H', 'O'],
              'validated': True},
 'protocols': {'stdout': True},
 'provenance': {'creator': 'QCElemental', 'routine': 'qcelemental.models.results', 'version': 'v0.25.1'},
 'schema_name': 'qcschema_input',
 'schema_version': 1}
--------------------------------------------------------------------------

Scratch directory: /home/gridsan/kfisher/scratch/

*** tstart() called on d-19-15-2
*** at Tue Sep 19 15:24:29 2023

   => Loading Basis Set <=

    Name: AUG-CC-PVTZ
    Role: ORBITAL
    Keyword: BASIS
    atoms 1-2, 4-5, 7-8 entry H          line    40 file /home/gridsan/kfisher/.conda/envs/p4env/share/psi4/basis/aug-cc-pvtz.gbs 
    atoms 3, 6, 9       entry O          line   331 file /home/gridsan/kfisher/.conda/envs/p4env/share/psi4/basis/aug-cc-pvtz.gbs 


         ---------------------------------------------------------
                                   SCF
               by Justin Turney, Rob Parrish, Andy Simmonett
                          and Daniel G. A. Smith
                              RHF Reference
                        1 Threads,  19073 MiB Core
         ---------------------------------------------------------

  ==> Geometry <==

    Molecular point group: c1
    Full point group: C1

    Geometry (in Bohr), charge = 0, multiplicity = 1:

       Center              X                  Y                   Z               Mass       
    ------------   -----------------  -----------------  -----------------  -----------------
      Gh(H)          -4.395668451132    -2.556518842312     5.004012468049     1.007825032230
      Gh(H)          -7.276735604552    -2.340374368034     5.656810440136     1.007825032230
      Gh(O)          -6.010187883891    -1.936807102298     4.361785945161    15.994914619570
         H           -6.261810265421    -2.979964174956     0.467180643866     1.007825032230
         H           -6.105480933144    -2.296972555679    -2.456297349529     1.007825032230
         O           -6.100554398238    -3.722620740802    -1.202151240025    15.994914619570
         H           -2.438538383704    -9.023254674846    -2.211702462618     1.007825032230
         H           -2.889662024682    -6.190744733418    -1.703594489375     1.007825032230
         O           -1.503761639683    -7.481255523055    -1.667707456416    15.994914619570

  Running in c1 symmetry.

  Rotational constants: A =      0.06318  B =      0.02564  C =      0.02019 [cm^-1]
  Rotational constants: A =   1894.04778  B =    768.69883  C =    605.32539 [MHz]
  Nuclear repulsion =   34.614401198813994

  Charge       = 0
  Multiplicity = 1
  Electrons    = 20
  Nalpha       = 10
  Nbeta        = 10

  ==> Algorithm <==

  SCF Algorithm Type is PK.
  DIIS enabled.
  MOM disabled.
  Fractional occupation disabled.
  Guess Type is SAD.
  Energy threshold   = 1.00e-10
  Density threshold  = 1.00e-10
  Integral threshold = 1.00e-12

  ==> Primary Basis <==

  Basis Set: AUG-CC-PVTZ
    Blend: AUG-CC-PVTZ
    Number of shells: 96
    Number of basis functions: 276
    Number of Cartesian functions: 315
    Spherical Harmonics?: true
    Max angular momentum: 3

  ==> Integral Setup <==

  Using in-core PK algorithm.
   Calculation information:
      Number of atoms:                   9
      Number of AO shells:              96
      Number of primitives:            156
      Number of atomic orbitals:       315
      Number of basis functions:       276

      Integral cutoff                 1.00e-12
      Number of threads:                 1

  Performing in-core PK
  Using 1461265302 doubles for integral storage.
  We computed 8990425 shell quartets total.
  Whereas there are 10841496 unique shell quartets.

  ==> DiskJK: Disk-Based J/K Matrices <==

    J tasked:                  Yes
    K tasked:                  Yes
    wK tasked:                  No
    Memory [MiB]:            14305
    Schwarz Cutoff:          1E-12

    OpenMP threads:              1

  Minimum eigenvalue in the overlap matrix is 1.9357795127E-04.
  Reciprocal condition number of the overlap matrix is 1.9907037397E-05.
    Using symmetric orthogonalization.

  ==> Pre-Iterations <==

  SCF Guess: Superposition of Atomic Densities via on-the-fly atomic UHF (no occupation information).

   -------------------------
    Irrep   Nso     Nmo    
   -------------------------
     A        276     276 
   -------------------------
    Total     276     276
   -------------------------

  ==> Iterations <==

                        Total Energy        Delta E     RMS |[F,P]|

   @RHF iter SAD:  -150.92256315032944   -1.50923e+02   0.00000e+00 
   @RHF iter   1:  -151.95633430438556   -1.03377e+00   2.31561e-03 DIIS/ADIIS
   @RHF iter   2:  -152.05619564922586   -9.98613e-02   1.59026e-03 DIIS/ADIIS
   @RHF iter   3:  -152.11589031503098   -5.96947e-02   1.15338e-04 DIIS/ADIIS
   @RHF iter   4:  -152.11678021694036   -8.89902e-04   2.97182e-05 DIIS
   @RHF iter   5:  -152.11684252919730   -6.23123e-05   9.68092e-06 DIIS
   @RHF iter   6:  -152.11684880071934   -6.27152e-06   4.43027e-06 DIIS
   @RHF iter   7:  -152.11684983141444   -1.03070e-06   8.72442e-07 DIIS
   @RHF iter   8:  -152.11684991480590   -8.33915e-08   1.45691e-07 DIIS
   @RHF iter   9:  -152.11684991693664   -2.13075e-09   2.45578e-08 DIIS
   @RHF iter  10:  -152.11684991699192   -5.52802e-11   6.88450e-09 DIIS
   @RHF iter  11:  -152.11684991699573   -3.80851e-12   1.40260e-09 DIIS
   @RHF iter  12:  -152.11684991699579   -5.68434e-14   3.07251e-10 DIIS
   @RHF iter  13:  -152.11684991699596   -1.70530e-13   1.25733e-10 DIIS
   @RHF iter  14:  -152.11684991699607   -1.13687e-13   2.74572e-11 DIIS
  Energy and wave function converged.


  ==> Post-Iterations <==

    Orbital Energies [Eh]
    ---------------------

    Doubly Occupied:                                                      

       1A    -20.593705     2A    -20.548175     3A     -1.361007  
       4A     -1.309525     5A     -0.729429     6A     -0.667255  
       7A     -0.601618     8A     -0.558740     9A     -0.528864  
      10A     -0.482712  

    Virtual:                                                              

      11A      0.017616    12A      0.036967    13A      0.046342  
      14A      0.051275    15A      0.066782    16A      0.079651  
      17A      0.108414    18A      0.118397    19A      0.142706  
      20A      0.147889    21A      0.156230    22A      0.172058  
      23A      0.181815    24A      0.188707    25A      0.195157  
      26A      0.211450    27A      0.211695    28A      0.235943  
      29A      0.247147    30A      0.254084    31A      0.269734  
      32A      0.281130    33A      0.284010    34A      0.292213  
      35A      0.311100    36A      0.318196    37A      0.344282  
      38A      0.348989    39A      0.364896    40A      0.367438  
      41A      0.369610    42A      0.381958    43A      0.397724  
      44A      0.400659    45A      0.415172    46A      0.426923  
      47A      0.435997    48A      0.455909    49A      0.459272  
      50A      0.469942    51A      0.552573    52A      0.577274  
      53A      0.605964    54A      0.627491    55A      0.636435  
      56A      0.686832    57A      0.716105    58A      0.717732  
      59A      0.728716    60A      0.742447    61A      0.757611  
      62A      0.761530    63A      0.771466    64A      0.777694  
      65A      0.787186    66A      0.794030    67A      0.812824  
      68A      0.836472    69A      0.842314    70A      0.854956  
      71A      0.868472    72A      0.882883    73A      0.894754  
      74A      0.902997    75A      0.909792    76A      0.925893  
      77A      0.938920    78A      0.952970    79A      0.958462  
      80A      0.967710    81A      0.975786    82A      0.980340  
      83A      0.985664    84A      0.990446    85A      0.998884  
      86A      1.017291    87A      1.031125    88A      1.047050  
      89A      1.056252    90A      1.063635    91A      1.097429  
      92A      1.109349    93A      1.117685    94A      1.134050  
      95A      1.146728    96A      1.181596    97A      1.186951  
      98A      1.205187    99A      1.213761   100A      1.225948  
     101A      1.233750   102A      1.242353   103A      1.297751  
     104A      1.304774   105A      1.330677   106A      1.360236  
     107A      1.398524   108A      1.418559   109A      1.437689  
     110A      1.458728   111A      1.508995   112A      1.544096  
     113A      1.558608   114A      1.592160   115A      1.613784  
     116A      1.628368   117A      1.643178   118A      1.695809  
     119A      1.733116   120A      1.746315   121A      1.779893  
     122A      1.808675   123A      1.839720   124A      1.852713  
     125A      1.902858   126A      1.929934   127A      1.959411  
     128A      1.985564   129A      2.011251   130A      2.029259  
     131A      2.072195   132A      2.271859   133A      2.297593  
     134A      2.313347   135A      2.333355   136A      2.378018  
     137A      2.402348   138A      2.421626   139A      2.433656  
     140A      2.453828   141A      2.454838   142A      2.467410  
     143A      2.486168   144A      2.514156   145A      2.538473  
     146A      2.552181   147A      2.559454   148A      2.572222  
     149A      2.605694   150A      2.618787   151A      2.631709  
     152A      2.669536   153A      2.704027   154A      2.752849  
     155A      2.772993   156A      2.782142   157A      2.823726  
     158A      2.842450   159A      2.858416   160A      2.890765  
     161A      2.908141   162A      2.955484   163A      2.959755  
     164A      2.988087   165A      3.015930   166A      3.088128  
     167A      3.160744   168A      3.175012   169A      3.261107  
     170A      3.309854   171A      3.348113   172A      3.530669  
     173A      3.666687   174A      3.677512   175A      3.707309  
     176A      3.944357   177A      3.996373   178A      4.014565  
     179A      4.069822   180A      4.145515   181A      4.180692  
     182A      4.204387   183A      4.227647   184A      4.246942  
     185A      4.271017   186A      4.290471   187A      4.343278  
     188A      4.386852   189A      4.397853   190A      4.419424  
     191A      4.436510   192A      4.454575   193A      4.486020  
     194A      4.503626   195A      4.526831   196A      4.570548  
     197A      4.609512   198A      4.622540   199A      4.622940  
     200A      4.646980   201A      4.702169   202A      4.778644  
     203A      4.810913   204A      4.904806   205A      4.917148  
     206A      4.940478   207A      4.999050   208A      5.035722  
     209A      5.055538   210A      5.082991   211A      5.111565  
     212A      5.139472   213A      5.212149   214A      5.257425  
     215A      5.292539   216A      5.307953   217A      5.335634  
     218A      5.439822   219A      5.455146   220A      5.509806  
     221A      5.552380   222A      5.618579   223A      5.671086  
     224A      5.754682   225A      5.797195   226A      6.152730  
     227A      6.219295   228A      6.253948   229A      6.312488  
     230A      6.549532   231A      6.559382   232A      6.601726  
     233A      6.755698   234A      6.817420   235A      6.889330  
     236A      6.928019   237A      6.961401   238A      7.107986  
     239A      7.118736   240A      7.224181   241A      7.248869  
     242A      7.267155   243A      7.300982   244A      7.305773  
     245A      7.335633   246A      7.383086   247A      7.403729  
     248A      7.466698   249A      7.516608   250A      7.577755  
     251A      7.672249   252A      7.726798   253A      7.782951  
     254A      7.893275   255A      7.915345   256A      7.930931  
     257A      7.971405   258A      8.054953   259A      8.142496  
     260A      8.241164   261A      8.642621   262A      8.685279  
     263A      8.691208   264A      8.707955   265A      9.732536  
     266A      9.935782   267A      9.988499   268A     10.194510  
     269A     11.074064   270A     11.732634   271A     11.984327  
     272A     13.373869   273A     13.827630   274A     15.261123  
     275A     16.072467   276A     64.055900  

    Final Occupation by Irrep:
              A 
    DOCC [    10 ]
    NA   [    10 ]
    NB   [    10 ]

  @RHF Final Energy:  -152.11684991699607

   => Energetics <=

    Nuclear Repulsion Energy =             34.6144011988139937
    One-Electron Energy =                -278.7004402065757631
    Two-Electron Energy =                  91.9691890907656955
    Total Energy =                       -152.1168499169960739

Computation Completed


Properties will be evaluated at   0.000000,   0.000000,   0.000000 [a0]

Properties computed using the SCF density matrix


 Multipole Moments:

 ------------------------------------------------------------------------------------
     Multipole            Electronic (a.u.)      Nuclear  (a.u.)        Total (a.u.)
 ------------------------------------------------------------------------------------

 L = 1.  Multiply by 2.5417464519 to convert [e a0] to [Debye]
 Dipole X            :         77.5502761          -78.5300199           -0.9797438
 Dipole Y            :        110.9219532         -110.1219462            0.8000069
 Dipole Z            :         28.8419203          -28.8632832           -0.0213629
 Magnitude           :                                                    1.2650555

 ------------------------------------------------------------------------------------

*** tstop() called on d-19-15-2 at Tue Sep 19 15:26:20 2023
Module time:
	user time   =      81.64 seconds =       1.36 minutes
	system time =       6.32 seconds =       0.11 minutes
	total time  =        111 seconds =       1.85 minutes
Total time:
	user time   =  107073.55 seconds =    1784.56 minutes
	system time =   55111.34 seconds =     918.52 minutes
	total time  =     182276 seconds =    3037.93 minutes
 MINTS: Wrapper to libmints.
   by Justin Turney

   Calculation information:
      Number of threads:                 1
      Number of atoms:                   9
      Number of AO shells:              96
      Number of SO shells:              96
      Number of primitives:            156
      Number of atomic orbitals:       315
      Number of basis functions:       276

      Number of irreps:                  1
      Integral cutoff                 1.00e-12
      Number of functions per irrep: [ 276 ]

 OEINTS: Overlap, kinetic, potential, dipole, and quadrupole integrals
         stored in file 35.

      Computing two-electron integrals...done
      Computed 539680372 non-zero two-electron integrals.
        Stored in file 33.


*** tstart() called on d-19-15-2
*** at Tue Sep 19 15:27:20 2023


	Wfn Parameters:
	--------------------
	Wavefunction         = CCSD_T
	Number of irreps     = 1
	Number of MOs        = 276
	Number of active MOs = 276
	AO-Basis             = NONE
	Semicanonical        = false
	Reference            = RHF
	Print Level          = 1

	IRREP	# MOs	# FZDC	# DOCC	# SOCC	# VIRT	# FZVR
	-----	-----	------	------	------	------	------
	 A	   276	    0	    10	    0	    266	    0
	Transforming integrals...
	IWL integrals will be deleted.
	(OO|OO)...
	Presorting SO-basis two-electron integrals.
	Sorting File: SO Ints (nn|nn) nbuckets = 1
	Constructing frozen core operators
	Starting first half-transformation.
	Sorting half-transformed integrals.
	First half integral transformation complete.
	Starting second half-transformation.
	Two-electron integral transformation complete.
	(OO|OV)...
	Starting second half-transformation.
	Two-electron integral transformation complete.
	(OO|VV)...
	Starting second half-transformation.
	Two-electron integral transformation complete.
	(OV|OO)...
	Starting first half-transformation.
	Sorting half-transformed integrals.
	First half integral transformation complete.
	Starting second half-transformation.
	Two-electron integral transformation complete.
	(OV|OV)...
	Starting second half-transformation.
	Two-electron integral transformation complete.
	(OV|VV)...
	Starting second half-transformation.
	Two-electron integral transformation complete.
	(VV|OO)...
	Starting first half-transformation.
	Sorting half-transformed integrals.
	First half integral transformation complete.
	Starting second half-transformation.
	Two-electron integral transformation complete.
	(VV|OV)...
	Starting second half-transformation.
	Two-electron integral transformation complete.
	(VV|VV)...
	Starting second half-transformation.
	Two-electron integral transformation complete.
	Frozen core energy     =      0.00000000000000

	Size of irrep 0 of <ab|cd> integrals:   5006.412 (MW) /  40051.292 (MB)
	Total:                                  5006.412 (MW) /  40051.292 (MB)

	Size of irrep 0 of <ia|bc> integrals:    188.211 (MW) /   1505.688 (MB)
	Total:                                   188.211 (MW) /   1505.688 (MB)

	Size of irrep 0 of tijab amplitudes:       7.076 (MW) /     56.605 (MB)
	Total:                                     7.076 (MW) /     56.605 (MB)

	Nuclear Rep. energy          =     34.61440119881399
	SCF energy                   =   -152.11684991699607
	One-electron energy          =   -278.70044019460568
	Two-electron energy          =     91.96918907879547
	Reference energy             =   -152.11684991699622

*** tstop() called on d-19-15-2 at Tue Sep 19 15:45:01 2023
Module time:
	user time   =     517.80 seconds =       8.63 minutes
	system time =     376.75 seconds =       6.28 minutes
	total time  =       1061 seconds =      17.68 minutes
Total time:
	user time   =  107634.28 seconds =    1793.90 minutes
	system time =   55502.18 seconds =     925.04 minutes
	total time  =     183397 seconds =    3056.62 minutes
            **************************
            *                        *
            *        CCENERGY        *
            *                        *
            **************************

    Nuclear Rep. energy (wfn)     =   34.614401198813994
    SCF energy          (wfn)     = -152.116849916996074
    Reference energy    (file100) = -152.116849916996216

    Input parameters:
    -----------------
    Wave function   =     CCSD_T
    Reference wfn   =     RHF
    Brueckner       =     No
    Memory (Mbytes) =     20000.0
    Maxiter         =     50
    R_Convergence   =     1.0e-07
    E_Convergence   =     1.0e-10
    Restart         =     Yes
    DIIS            =     Yes
    AO Basis        =     NONE
    ABCD            =     NEW
    Cache Level     =     2
    Cache Type      =     LOW
    Print Level     =     1
    Num. of threads =     1
    # Amps to Print =     10
    Print MP2 Amps? =     No
    Analyze T2 Amps =     No
    Print Pair Ener =     No
    Local CC        =     No
    SCS-MP2         =     False
    SCSN-MP2        =     False
    SCS-CCSD        =     False

MP2 correlation energy -0.5751584158615634
                Solving CC Amplitude Equations
                ------------------------------
  Iter             Energy              RMS        T1Diag      D1Diag    New D1Diag    D2Diag
  ----     ---------------------    ---------   ----------  ----------  ----------   --------
     0        -0.575158415861563    0.000e+00    0.000000    0.000000    0.000000    0.122754
     1        -0.570059598024967    5.248e-02    0.008017    0.018718    0.018718    0.124526
     2        -0.580791737103814    1.877e-02    0.007872    0.018480    0.018480    0.129568
     3        -0.583695480313901    7.457e-03    0.009190    0.022260    0.022260    0.132004
     4        -0.583409551483947    1.615e-03    0.009361    0.022797    0.022797    0.132230
     5        -0.583437364446364    6.310e-04    0.009459    0.023180    0.023180    0.132305
     6        -0.583453429921858    1.679e-04    0.009484    0.023289    0.023289    0.132303
     7        -0.583449371973870    6.455e-05    0.009490    0.023321    0.023321    0.132293
     8        -0.583447815261387    2.058e-05    0.009492    0.023330    0.023330    0.132291
     9        -0.583448093178502    8.367e-06    0.009492    0.023334    0.023334    0.132291
    10        -0.583447637907885    3.401e-06    0.009492    0.023335    0.023335    0.132291
    11        -0.583447600768915    1.404e-06    0.009492    0.023335    0.023335    0.132291
    12        -0.583447574099026    6.785e-07    0.009492    0.023335    0.023335    0.132291
[...]
  Nuclear repulsion =   34.614401198813994

  Charge       = 0
  Multiplicity = 1
  Electrons    = 20
  Nalpha       = 10
  Nbeta        = 10

  ==> Algorithm <==

  SCF Algorithm Type is PK.
  DIIS enabled.
  MOM disabled.
  Fractional occupation disabled.
  Guess Type is SAD.
  Energy threshold   = 1.00e-10
  Density threshold  = 1.00e-10
  Integral threshold = 1.00e-12

  ==> Primary Basis <==

  Basis Set: AUG-CC-PVTZ
    Blend: AUG-CC-PVTZ
    Number of shells: 64
    Number of basis functions: 184
    Number of Cartesian functions: 210
    Spherical Harmonics?: true
    Max angular momentum: 3

  ==> Integral Setup <==

  Using in-core PK algorithm.
   Calculation information:
      Number of atoms:                   6
      Number of AO shells:              64
      Number of primitives:            104
      Number of atomic orbitals:       210
      Number of basis functions:       184

      Integral cutoff                 1.00e-12
      Number of threads:                 1

  Performing in-core PK
  Using 289697420 doubles for integral storage.
  We computed 2029039 shell quartets total.
  Whereas there are 2164240 unique shell quartets.

  ==> DiskJK: Disk-Based J/K Matrices <==

    J tasked:                  Yes
    K tasked:                  Yes
    wK tasked:                  No
    Memory [MiB]:            14305
    Schwarz Cutoff:          1E-12

    OpenMP threads:              1

  Minimum eigenvalue in the overlap matrix is 2.6137770379E-04.
  Reciprocal condition number of the overlap matrix is 3.0232748475E-05.
    Using symmetric orthogonalization.

  ==> Pre-Iterations <==

  SCF Guess: Superposition of Atomic Densities via on-the-fly atomic UHF (no occupation information).

   -------------------------
    Irrep   Nso     Nmo    
   -------------------------
     A        184     184 
   -------------------------
    Total     184     184
   -------------------------

  ==> Iterations <==

                        Total Energy        Delta E     RMS |[F,P]|

   @RHF iter SAD:  -150.92256315032947   -1.50923e+02   0.00000e+00 
   @RHF iter   1:  -151.95630506978253   -1.03374e+00   3.47332e-03 DIIS/ADIIS
   @RHF iter   2:  -152.05616097455541   -9.98559e-02   2.38524e-03 DIIS/ADIIS
   @RHF iter   3:  -152.11584847884941   -5.96875e-02   1.73995e-04 DIIS/ADIIS
   @RHF iter   4:  -152.11674238709736   -8.93908e-04   4.45263e-05 DIIS
   @RHF iter   5:  -152.11680468682056   -6.22997e-05   1.45151e-05 DIIS
   @RHF iter   6:  -152.11681095822954   -6.27141e-06   6.64474e-06 DIIS
   @RHF iter   7:  -152.11681198845301   -1.03022e-06   1.30761e-06 DIIS
   @RHF iter   8:  -152.11681207166632   -8.32133e-08   2.18255e-07 DIIS
   @RHF iter   9:  -152.11681207378911   -2.12279e-09   3.67384e-08 DIIS
   @RHF iter  10:  -152.11681207384402   -5.49107e-11   1.03222e-08 DIIS
   @RHF iter  11:  -152.11681207384777   -3.75167e-12   2.10768e-09 DIIS
   @RHF iter  12:  -152.11681207384774    2.84217e-14   4.60764e-10 DIIS
   @RHF iter  13:  -152.11681207384794   -1.98952e-13   1.87810e-10 DIIS
   @RHF iter  14:  -152.11681207384791    2.84217e-14   4.14045e-11 DIIS
  Energy and wave function converged.


  ==> Post-Iterations <==

    Orbital Energies [Eh]
    ---------------------

    Doubly Occupied:                                                      

       1A    -20.593698     2A    -20.548178     3A     -1.361024  
       4A     -1.309529     5A     -0.729444     6A     -0.667259  
       7A     -0.601635     8A     -0.558745     9A     -0.528868  
      10A     -0.482714  

    Virtual:                                                              

      11A      0.021762    12A      0.044329    13A      0.046972  
      14A      0.071610    15A      0.128171    16A      0.140672  
      17A      0.162489    18A      0.167254    19A      0.175282  
      20A      0.186737    21A      0.210897    22A      0.221977  
      23A      0.233119    24A      0.240871    25A      0.259323  
      26A      0.275705    27A      0.284711    28A      0.302668  
      29A      0.360301    30A      0.364050    31A      0.367233  
      32A      0.399096    33A      0.408952    34A      0.421053  
      35A      0.434918    36A      0.452647    37A      0.466204  
      38A      0.566762    39A      0.596516    40A      0.614455  
      41A      0.662486    42A      0.696492    43A      0.707999  
      44A      0.719618    45A      0.747626    46A      0.752126  
      47A      0.774475    48A      0.784725    49A      0.821037  
      50A      0.832808    51A      0.873521    52A      0.887984  
      53A      0.907698    54A      0.923374    55A      0.934355  
      56A      0.943034    57A      0.959067    58A      0.964129  
      59A      0.972922    60A      0.986030    61A      1.000343  
      62A      1.007481    63A      1.013091    64A      1.039485  
      65A      1.055524    66A      1.117333    67A      1.135486  
      68A      1.144588    69A      1.172840    70A      1.181847  
      71A      1.202699    72A      1.222139    73A      1.245289  
      74A      1.304342    75A      1.334337    76A      1.393295  
      77A      1.442244    78A      1.479099    79A      1.536898  
      80A      1.547894    81A      1.604549    82A      1.629170  
      83A      1.676051    84A      1.716779    85A      1.789885  
      86A      1.840180    87A      1.918468    88A      1.949882  
      89A      1.976651    90A      2.002986    91A      2.118268  
      92A      2.256958    93A      2.295059    94A      2.305433  
      95A      2.344285    96A      2.399346    97A      2.406677  
      98A      2.420076    99A      2.452170   100A      2.464337  
     101A      2.473914   102A      2.509761   103A      2.544507  
     104A      2.595429   105A      2.616690   106A      2.709461  
     107A      2.720058   108A      2.729950   109A      2.765003  
     110A      2.800336   111A      2.830002   112A      2.853330  
     113A      2.873446   114A      2.904518   115A      2.968792  
     116A      2.987302   117A      3.648653   118A      3.669824  
     119A      3.743457   120A      3.955754   121A      3.992875  
     122A      4.066881   123A      4.141079   124A      4.165702  
     125A      4.170342   126A      4.204058   127A      4.226574  
     128A      4.258585   129A      4.280128   130A      4.370184  
     131A      4.394539   132A      4.414081   133A      4.445951  
     134A      4.447694   135A      4.463357   136A      4.541849  
     137A      4.566150   138A      4.620887   139A      4.696751  
     140A      4.769441   141A      4.796299   142A      4.901046  
     143A      5.029311   144A      5.066235   145A      5.105045  
     146A      5.137648   147A      5.214399   148A      5.245443  
     149A      5.270797   150A      5.295597   151A      5.441757  
     152A      5.504266   153A      5.615516   154A      5.717391  
     155A      6.187264   156A      6.233840   157A      6.537479  
     158A      6.547060   159A      6.743218   160A      6.789371  
     161A      6.852612   162A      6.925887   163A      7.098624  
     164A      7.111669   165A      7.222833   166A      7.229630  
     167A      7.251553   168A      7.291074   169A      7.298018  
     170A      7.312193   171A      7.350282   172A      7.363530  
     173A      7.401163   174A      7.471939   175A      7.498079  
     176A      7.628948   177A      7.818648   178A      7.887988  
     179A      7.912741   180A      7.932404   181A      8.663499  
     182A      8.686658   183A     14.880469   184A     15.652779  

    Final Occupation by Irrep:
              A 
    DOCC [    10 ]
    NA   [    10 ]
    NB   [    10 ]

  @RHF Final Energy:  -152.11681207384791

   => Energetics <=

    Nuclear Repulsion Energy =             34.6144011988139937
    One-Electron Energy =                -278.7002380535565180
    Two-Electron Energy =                  91.9690247808945998
    Total Energy =                       -152.1168120738479388

Computation Completed


Properties will be evaluated at   0.000000,   0.000000,   0.000000 [a0]

Properties computed using the SCF density matrix


 Multipole Moments:

 ------------------------------------------------------------------------------------
     Multipole            Electronic (a.u.)      Nuclear  (a.u.)        Total (a.u.)
 ------------------------------------------------------------------------------------

 L = 1.  Multiply by 2.5417464519 to convert [e a0] to [Debye]
 Dipole X            :         77.5503680          -78.5300199           -0.9796519
 Dipole Y            :        110.9218687         -110.1219462            0.7999225
 Dipole Z            :         28.8419130          -28.8632832           -0.0213703
 Magnitude           :                                                    1.2649310

 ------------------------------------------------------------------------------------

*** tstop() called on d-19-15-2 at Tue Sep 19 20:57:18 2023
Module time:
	user time   =      17.42 seconds =       0.29 minutes
	system time =       0.86 seconds =       0.01 minutes
	total time  =         22 seconds =       0.37 minutes
Total time:
	user time   =  119065.81 seconds =    1984.43 minutes
	system time =   61328.73 seconds =    1022.15 minutes
	total time  =     202134 seconds =    3368.90 minutes
 MINTS: Wrapper to libmints.
   by Justin Turney

   Calculation information:
      Number of threads:                 1
      Number of atoms:                   6
      Number of AO shells:              64
      Number of SO shells:              64
      Number of primitives:            104
      Number of atomic orbitals:       210
      Number of basis functions:       184

      Number of irreps:                  1
      Integral cutoff                 1.00e-12
      Number of functions per irrep: [ 184 ]

 OEINTS: Overlap, kinetic, potential, dipole, and quadrupole integrals
         stored in file 35.

      Computing two-electron integrals...done
      Computed 129264167 non-zero two-electron integrals.
        Stored in file 33.


*** tstart() called on d-19-15-2
*** at Tue Sep 19 20:57:30 2023


	Wfn Parameters:
	--------------------
	Wavefunction         = CCSD_T
	Number of irreps     = 1
	Number of MOs        = 184
	Number of active MOs = 184
	AO-Basis             = NONE
	Semicanonical        = false
	Reference            = RHF
	Print Level          = 1

	IRREP	# MOs	# FZDC	# DOCC	# SOCC	# VIRT	# FZVR
	-----	-----	------	------	------	------	------
	 A	   184	    0	    10	    0	    174	    0
	Transforming integrals...
	IWL integrals will be deleted.
	(OO|OO)...
	Presorting SO-basis two-electron integrals.
	Sorting File: SO Ints (nn|nn) nbuckets = 1
	Constructing frozen core operators
	Starting first half-transformation.
	Sorting half-transformed integrals.
	First half integral transformation complete.
	Starting second half-transformation.
	Two-electron integral transformation complete.
	(OO|OV)...
	Starting second half-transformation.
	Two-electron integral transformation complete.
	(OO|VV)...
	Starting second half-transformation.
	Two-electron integral transformation complete.
	(OV|OO)...
	Starting first half-transformation.
	Sorting half-transformed integrals.
	First half integral transformation complete.
	Starting second half-transformation.
	Two-electron integral transformation complete.
	(OV|OV)...
	Starting second half-transformation.
	Two-electron integral transformation complete.
	(OV|VV)...
	Starting second half-transformation.
	Two-electron integral transformation complete.
	(VV|OO)...
	Starting first half-transformation.
	Sorting half-transformed integrals.
	First half integral transformation complete.
	Starting second half-transformation.
	Two-electron integral transformation complete.
	(VV|OV)...
	Starting second half-transformation.
	Two-electron integral transformation complete.
	(VV|VV)...
	Starting second half-transformation.
	Two-electron integral transformation complete.
	Frozen core energy     =      0.00000000000000

	Size of irrep 0 of <ab|cd> integrals:    916.636 (MW) /   7333.089 (MB)
	Total:                                   916.636 (MW) /   7333.089 (MB)

	Size of irrep 0 of <ia|bc> integrals:     52.680 (MW) /    421.442 (MB)
	Total:                                    52.680 (MW) /    421.442 (MB)

	Size of irrep 0 of tijab amplitudes:       3.028 (MW) /     24.221 (MB)
	Total:                                     3.028 (MW) /     24.221 (MB)

	Nuclear Rep. energy          =     34.61440119881399
	SCF energy                   =   -152.11681207384791
	One-electron energy          =   -278.70023804111031
	Two-electron energy          =     91.96902476844809
	Reference energy             =   -152.11681207384822

*** tstop() called on d-19-15-2 at Tue Sep 19 20:59:13 2023
Module time:
	user time   =      59.42 seconds =       0.99 minutes
	system time =      41.96 seconds =       0.70 minutes
	total time  =        103 seconds =       1.72 minutes
Total time:
	user time   =  119133.83 seconds =    1985.56 minutes
	system time =   61373.51 seconds =    1022.89 minutes
	total time  =     202249 seconds =    3370.82 minutes
            **************************
            *                        *
            *        CCENERGY        *
            *                        *
            **************************

    Nuclear Rep. energy (wfn)     =   34.614401198813994
    SCF energy          (wfn)     = -152.116812073847910
    Reference energy    (file100) = -152.116812073848223

    Input parameters:
    -----------------
    Wave function   =     CCSD_T
    Reference wfn   =     RHF
    Brueckner       =     No
    Memory (Mbytes) =     20000.0
    Maxiter         =     50
    R_Convergence   =     1.0e-07
    E_Convergence   =     1.0e-10
    Restart         =     Yes
    DIIS            =     Yes
    AO Basis        =     NONE
    ABCD            =     NEW
    Cache Level     =     2
    Cache Type      =     LOW
    Print Level     =     1
    Num. of threads =     1
    # Amps to Print =     10
    Print MP2 Amps? =     No
    Analyze T2 Amps =     No
    Print Pair Ener =     No
    Local CC        =     No
    SCS-MP2         =     False
    SCSN-MP2        =     False
    SCS-CCSD        =     False

MP2 correlation energy -0.5745852952309085
                Solving CC Amplitude Equations
                ------------------------------
  Iter             Energy              RMS        T1Diag      D1Diag    New D1Diag    D2Diag
  ----     ---------------------    ---------   ----------  ----------  ----------   --------
     0        -0.574585295230909    0.000e+00    0.000000    0.000000    0.000000    0.122750
     1        -0.569482350155031    5.248e-02    0.008019    0.018723    0.018723    0.124526
     2        -0.580211690744268    1.876e-02    0.007874    0.018484    0.018484    0.129569
     3        -0.583114883170999    7.453e-03    0.009193    0.022266    0.022266    0.132006
     4        -0.582826553522340    1.606e-03    0.009363    0.022803    0.022803    0.132230
     5        -0.582856248687352    6.240e-04    0.009462    0.023186    0.023186    0.132305
     6        -0.582871513912829    1.629e-04    0.009486    0.023292    0.023292    0.132303
     7        -0.582867280071362    6.234e-05    0.009492    0.023324    0.023324    0.132294
     8        -0.582865838187731    1.980e-05    0.009494    0.023333    0.023333    0.132291
     9        -0.582866136155155    8.155e-06    0.009494    0.023336    0.023336    0.132291
    10        -0.582865656403753    3.299e-06    0.009495    0.023337    0.023337    0.132291
    11        -0.582865638948465    1.299e-06    0.009494    0.023337    0.023337    0.132291
    12        -0.582865612401790    6.230e-07    0.009494    0.023337    0.023337    0.132291
    13        -0.582865599293878    2.242e-07    0.009494    0.023337    0.023337    0.132291
    14        -0.582865599788425    8.086e-08    0.009494    0.023337    0.023337    0.132291
    15        -0.582865600541639    3.271e-08    0.009494    0.023337    0.023337    0.132291
    16        -0.582865600291480    1.264e-08    0.009494    0.023337    0.023337    0.132291
    17        -0.582865600258071    5.292e-09    0.009494    0.023337    0.023337    0.132291
    18        -0.582865600264495    2.189e-09    0.009494    0.023337    0.023337    0.132291

    Iterations converged.


    Largest TIA Amplitudes:
              9   7         0.0153507507
              9  22        -0.0087592361
              8   4         0.0085168495
              9  17        -0.0080345640
              8   6         0.0079266926
              6   4        -0.0069882320
              8   3        -0.0069203617
              8  16         0.0062948074
              6  18         0.0061963317
              9  21         0.0060483046

    Largest TIjAb Amplitudes:
      5   5  26  26        -0.0208363034
      4   4  25  25        -0.0206186945
      4   4   8  25        -0.0125732740
      4   4  25   8        -0.0125732740
      4   4  28  28        -0.0115759825
      5   5  26  53         0.0098186585
      5   5  53  26         0.0098186585
      6   6  28  28        -0.0094946230
      5   5  16  26        -0.0094857787
      5   5  26  16        -0.0094857787

    SCF energy       (wfn)                    = -152.116812073847910
    Reference energy (file100)                = -152.116812073848223

    Opposite-spin MP2 correlation energy      =   -0.435657170362297
    Same-spin MP2 correlation energy          =   -0.138928124868611
    Singles MP2 correlation energy            =   -0.000000000000000
    MP2 correlation energy                    =   -0.574585295230909
      * MP2 total energy                      = -152.691397369079141

    Opposite-spin CCSD correlation energy     =   -0.459590257403449
    Same-spin CCSD correlation energy         =   -0.123275342861046
    Singles CCSD correlation energy           =    0.000000000000000
    CCSD correlation energy                   =   -0.582865600264495
      * CCSD total energy                     = -152.699677674112706

            **************************
            *                        *
            *        CCTRIPLES       *
            *                        *
            **************************


    Wave function   =    CCSD_T
    Reference wfn   =      RHF

    Nuclear Rep. energy (wfn)                =   34.614401198813994
    SCF energy          (wfn)                = -152.116812073847910
    Reference energy    (file100)            = -152.116812073848223
    CCSD energy         (file100)            =   -0.582865600264495
    Total CCSD energy   (file100)            = -152.699677674112706

    Number of ijk index combinations:              220
    Memory available in words               :      2500000000
    Approx. words needed per explicit thread:        21072096
    Number of threads for explicit ijk threading:    1

    MKL num_threads set to 1 for explicit threading.

    (T) energy                                =   -0.018591640590997
      * CCSD(T) total energy                  = -152.718269314703718


    Psi4 stopped on: Tuesday, 19 September 2023 09:06PM
    Psi4 wall time for execution: 0:09:09.71


  //>>>>>>>>>>>>>>>>>>>>>>>>>>>>>>>>>>>//
  //          ManyBody Results         //
  //<<<<<<<<<<<<<<<<<<<<<<<<<<<<<<<<<<<//


   ==> N-Body: Counterpoise Corrected (CP) energies <==

        n-Body     Total Energy            Interaction Energy                          N-body Contribution to Interaction Energy
                   [Eh]                    [Eh]                  [kcal/mol]            [Eh]                  [kcal/mol]
             1  N/A                         0.000000000000        0.000000000000        0.000000000000        0.000000000000
  FULL/RTN   2  N/A                        -0.007292135413       -4.575884055599       -0.007292135413       -4.575884055599


