Scratch directory: /home/gridsan/kfisher/scratch/

  //>>>>>>>>>>>>>>>>>>>>>>>>>>>>>>>>>>>>>>>>//
  // ManyBody Setup: N-Body Levels [1, 2, 3]//
  //<<<<<<<<<<<<<<<<<<<<<<<<<<<<<<<<<<<<<<<<//

        Number of 1-body computations:     3
        Number of 2-body computations:     3
        Number of 3-body computations:     1

    -----------------------------------------------------------------------
          Psi4: An Open-Source Ab Initio Electronic Structure Package
                               Psi4 1.7 release

                         Git: Rev {HEAD} 6ce35a5 


    D. G. A. Smith, L. A. Burns, A. C. Simmonett, R. M. Parrish,
    M. C. Schieber, R. Galvelis, P. Kraus, H. Kruse, R. Di Remigio,
    A. Alenaizan, A. M. James, S. Lehtola, J. P. Misiewicz, M. Scheurer,
    R. A. Shaw, J. B. Schriber, Y. Xie, Z. L. Glick, D. A. Sirianni,
    J. S. O'Brien, J. M. Waldrop, A. Kumar, E. G. Hohenstein,
    B. P. Pritchard, B. R. Brooks, H. F. Schaefer III, A. Yu. Sokolov,
    K. Patkowski, A. E. DePrince III, U. Bozkaya, R. A. King,
    F. A. Evangelista, J. M. Turney, T. D. Crawford, C. D. Sherrill,
    J. Chem. Phys. 152(18) 184108 (2020). https://doi.org/10.1063/5.0006002

                            Additional Code Authors
    E. T. Seidl, C. L. Janssen, E. F. Valeev, M. L. Leininger,
    J. F. Gonthier, R. M. Richard, H. R. McAlexander, M. Saitow, X. Wang,
    P. Verma, M. H. Lechner, A. Jiang, S. Behnle, A. G. Heide,
    M. F. Herbst, and D. L. Poole

             Previous Authors, Complete List of Code Contributors,
                       and Citations for Specific Modules
    https://github.com/psi4/psi4/blob/master/codemeta.json
    https://github.com/psi4/psi4/graphs/contributors
    http://psicode.org/psi4manual/master/introduction.html#citing-psifour

    -----------------------------------------------------------------------


    Psi4 started on: Sunday, 17 September 2023 12:48PM

    Process ID: 258105
    Host:       d-19-15-2
    PSIDATADIR: /home/gridsan/kfisher/.conda/envs/p4env/share/psi4
    Memory:     18.6 GiB
    Threads:    1
    
  ==> Input QCSchema <==

--------------------------------------------------------------------------
{'driver': 'energy',
 'extras': {'psiapi': True, 'wfn_qcvars_only': True},
 'id': None,
 'keywords': {'D_CONVERGENCE': 1e-10, 'E_CONVERGENCE': 1e-10, 'function_kwargs': {'dft_functional': 'scan-d3zero2b'}},
 'model': {'basis': 'aug-cc-pvtz', 'method': 'scf'},
 'molecule': {'atom_labels': ['', '', '', '', '', '', '', '', ''],
              'atomic_numbers': [1, 1, 8, 1, 1, 8, 1, 1, 8],
              'fix_com': True,
              'fix_orientation': True,
              'fix_symmetry': 'c1',
              'fragment_charges': [0.0, 0.0, 0.0],
              'fragment_multiplicities': [1, 1, 1],
              'fragments': [[0, 1, 2], [3, 4, 5], [6, 7, 8]],
              'geometry': [-4.395668451131715, -2.556518842312072, 5.004012468048863, -7.276735604552182,
                           -2.340374368034385, 5.656810440135804, -6.010187883890869, -1.9368071022981868,
                           4.3617859451611745, -6.2618102654205146, -2.979964174956484, 0.46718064386595365,
                           -6.10548093314398, -2.2969725556794636, -2.4562973495292453, -6.10055439823765,
                           -3.722620740802205, -1.202151240025168, -2.438538383703597, -9.023254674845916,
                           -2.2117024626176915, -2.889662024681536, -6.1907447334177546, -1.703594489374536,
                           -1.5037616396830085, -7.481255523055421, -1.6677074564164167],
              'mass_numbers': [1, 1, 16, 1, 1, 16, 1, 1, 16],
              'masses': [1.00782503223, 1.00782503223, 15.99491461957, 1.00782503223, 1.00782503223, 15.99491461957,
                         1.00782503223, 1.00782503223, 15.99491461957],
              'molecular_charge': 0.0,
              'molecular_multiplicity': 1,
              'name': 'H6O3',
              'provenance': {'creator': 'QCElemental',
                             'routine': 'qcelemental.molparse.from_string',
                             'version': 'v0.25.1'},
              'real': [True, True, True, False, False, False, False, False, False],
              'schema_name': 'qcschema_molecule',
              'schema_version': 2,
              'symbols': ['H', 'H', 'O', 'H', 'H', 'O', 'H', 'H', 'O'],
              'validated': True},
 'protocols': {'stdout': True},
 'provenance': {'creator': 'QCElemental', 'routine': 'qcelemental.models.results', 'version': 'v0.25.1'},
 'schema_name': 'qcschema_input',
 'schema_version': 1}
--------------------------------------------------------------------------

Scratch directory: /home/gridsan/kfisher/scratch/

*** tstart() called on d-19-15-2
*** at Tue Sep 19 14:15:15 2023

   => Loading Basis Set <=

    Name: AUG-CC-PVTZ
    Role: ORBITAL
    Keyword: BASIS
    atoms 1-2, 4-5, 7-8 entry H          line    40 file /home/gridsan/kfisher/.conda/envs/p4env/share/psi4/basis/aug-cc-pvtz.gbs 
    atoms 3, 6, 9       entry O          line   331 file /home/gridsan/kfisher/.conda/envs/p4env/share/psi4/basis/aug-cc-pvtz.gbs 

   => SCAN-D3: Empirical Dispersion <=

    Grimme's -D3 (zero-damping) Dispersion Correction
    Grimme S.; Antony J.; Ehrlich S.; Krieg H. (2010), J. Chem. Phys., 132: 154104
    Parametrisation from:    J.G. Brandenburg, J. E. Bates, J. Sun, J.P. Perdew, Phys. Rev. B 94, 115144, 2016

        s6 =       1.000000
        s8 =       0.000000
       sr6 =       1.324000
    alpha6 =      14.000000
       sr8 =       1.000000


         ---------------------------------------------------------
                                   SCF
               by Justin Turney, Rob Parrish, Andy Simmonett
                          and Daniel G. A. Smith
                              RKS Reference
                        1 Threads,  19073 MiB Core
         ---------------------------------------------------------

  ==> Geometry <==

    Molecular point group: c1
    Full point group: C1

    Geometry (in Bohr), charge = 0, multiplicity = 1:

       Center              X                  Y                   Z               Mass       
    ------------   -----------------  -----------------  -----------------  -----------------
         H           -4.395668451132    -2.556518842312     5.004012468049     1.007825032230
         H           -7.276735604552    -2.340374368034     5.656810440136     1.007825032230
         O           -6.010187883891    -1.936807102298     4.361785945161    15.994914619570
      Gh(H)          -6.261810265421    -2.979964174956     0.467180643866     1.007825032230
      Gh(H)          -6.105480933144    -2.296972555679    -2.456297349529     1.007825032230
      Gh(O)          -6.100554398238    -3.722620740802    -1.202151240025    15.994914619570
      Gh(H)          -2.438538383704    -9.023254674846    -2.211702462618     1.007825032230
      Gh(H)          -2.889662024682    -6.190744733418    -1.703594489375     1.007825032230
      Gh(O)          -1.503761639683    -7.481255523055    -1.667707456416    15.994914619570

  Running in c1 symmetry.

  Rotational constants: A =      0.06318  B =      0.02564  C =      0.02019 [cm^-1]
  Rotational constants: A =   1894.04778  B =    768.69883  C =    605.32539 [MHz]
  Nuclear repulsion =    8.984941985663543

  Charge       = 0
  Multiplicity = 1
  Electrons    = 10
  Nalpha       = 5
  Nbeta        = 5

  ==> Algorithm <==

  SCF Algorithm Type is DF.
  DIIS enabled.
  MOM disabled.
  Fractional occupation disabled.
  Guess Type is SAD.
  Energy threshold   = 1.00e-10
  Density threshold  = 1.00e-10
  Integral threshold = 1.00e-12

  ==> Primary Basis <==

  Basis Set: AUG-CC-PVTZ
    Blend: AUG-CC-PVTZ
    Number of shells: 96
    Number of basis functions: 276
    Number of Cartesian functions: 315
    Spherical Harmonics?: true
    Max angular momentum: 3

  ==> DFT Potential <==

   => Composite Functional: SCAN-D3ZERO2B <= 

    SCAN Meta-GGA XC Functional
(10.1103/PhysRevLett.115.036402)
    J. Sun, A. Ruzsinszky, J. P. Perdew  Phys. Rev. Lett. 115, 036402, 2015


    Deriv               =              1
    GGA                 =           TRUE
    Meta                =           TRUE

    Exchange Hybrid     =          FALSE
    MP2 Hybrid          =          FALSE

   => Exchange Functionals <=

    1.0000   XC_MGGA_X_SCAN

   => Correlation Functionals <=

    1.0000   XC_MGGA_C_SCAN

   => LibXC Density Thresholds  <==

    XC_MGGA_C_SCAN:  1.00E-15 
    XC_MGGA_X_SCAN:  1.00E-15 

   => Molecular Quadrature <=

    Radial Scheme          =       TREUTLER
    Pruning Scheme         =           NONE
    Nuclear Scheme         =       TREUTLER

    Blocking Scheme        =         OCTREE
    BS radius alpha        =              1
    Pruning alpha          =              1
    Radial Points          =             75
    Spherical Points       =            302
    Total Points           =         198308
    Total Blocks           =           1544
    Max Points             =            256
    Max Functions          =            264
    Weights Tolerance      =       1.00E-15

   => Loading Basis Set <=

    Name: (AUG-CC-PVTZ AUX)
    Role: JKFIT
    Keyword: DF_BASIS_SCF
    atoms 1-2, 4-5, 7-8 entry H          line    70 file /home/gridsan/kfisher/.conda/envs/p4env/share/psi4/basis/aug-cc-pvtz-jkfit.gbs 
    atoms 3, 6, 9       entry O          line   286 file /home/gridsan/kfisher/.conda/envs/p4env/share/psi4/basis/aug-cc-pvtz-jkfit.gbs 

  ==> Integral Setup <==

  DFHelper Memory: AOs need 0.325 GiB; user supplied 11.105 GiB. Using in-core AOs.

  ==> MemDFJK: Density-Fitted J/K Matrices <==

    J tasked:                   Yes
    K tasked:                    No
    wK tasked:                   No
    OpenMP threads:               1
    Memory [MiB]:             11371
    Algorithm:                 Core
    Schwarz Cutoff:           1E-12
    Mask sparsity (%):       8.1285
    Fitting Condition:        1E-10

   => Auxiliary Basis Set <=

  Basis Set: (AUG-CC-PVTZ AUX)
    Blend: AUG-CC-PVTZ-JKFIT
    Number of shells: 174
    Number of basis functions: 588
    Number of Cartesian functions: 723
    Spherical Harmonics?: true
    Max angular momentum: 4

  Cached 100.0% of DFT collocation blocks in 2.865 [GiB].

  Minimum eigenvalue in the overlap matrix is 1.9357795127E-04.
  Reciprocal condition number of the overlap matrix is 1.9907037397E-05.
    Using symmetric orthogonalization.

  ==> Pre-Iterations <==

  SCF Guess: Superposition of Atomic Densities via on-the-fly atomic UHF (no occupation information).

   -------------------------
    Irrep   Nso     Nmo    
   -------------------------
     A        276     276 
   -------------------------
    Total     276     276
   -------------------------

  ==> Iterations <==

                           Total Energy        Delta E     RMS |[F,P]|

   @DF-RKS iter SAD:   -76.05377597635670   -7.60538e+01   0.00000e+00 
   @DF-RKS iter   1:   -76.24348398320106   -1.89708e-01   2.63855e-03 DIIS/ADIIS
   @DF-RKS iter   2:   -75.64507493007741    5.98409e-01   5.05103e-03 DIIS/ADIIS
   @DF-RKS iter   3:   -76.42873795380866   -7.83663e-01   2.26687e-04 DIIS/ADIIS
   @DF-RKS iter   4:   -76.43057433156905   -1.83638e-03   2.78231e-05 DIIS
   @DF-RKS iter   5:   -76.43059321851361   -1.88869e-05   7.83799e-06 DIIS
   @DF-RKS iter   6:   -76.43059481519889   -1.59669e-06   4.35958e-07 DIIS
   @DF-RKS iter   7:   -76.43059481978345   -4.58456e-09   1.00053e-07 DIIS
   @DF-RKS iter   8:   -76.43059482007446   -2.91010e-10   1.08297e-08 DIIS
   @DF-RKS iter   9:   -76.43059482007824   -3.78009e-12   3.00432e-09 DIIS
   @DF-RKS iter  10:   -76.43059482007844   -1.98952e-13   1.43303e-10 DIIS
   @DF-RKS iter  11:   -76.43059482007853   -8.52651e-14   1.13897e-11 DIIS
  Energy and wave function converged.


  ==> Post-Iterations <==

   Electrons on quadrature grid:
      Ntotal   =   10.0000007226 ; deviation = 7.226e-07 

    Orbital Energies [Eh]
    ---------------------

    Doubly Occupied:                                                      

       1A    -18.970288     2A     -0.972786     3A     -0.496676  
       4A     -0.353059     5A     -0.277848  

    Virtual:                                                              

       6A     -0.012136     7A      0.028881     8A      0.035097  
       9A      0.047120    10A      0.061257    11A      0.067411  
      12A      0.089048    13A      0.100382    14A      0.121102  
      15A      0.126135    16A      0.129707    17A      0.145404  
      18A      0.151602    19A      0.159565    20A      0.169129  
      21A      0.182663    22A      0.185311    23A      0.192784  
      24A      0.219109    25A      0.223223    26A      0.245971  
      27A      0.253073    28A      0.284359    29A      0.294449  
      30A      0.299949    31A      0.322492    32A      0.325167  
      33A      0.330243    34A      0.342320    35A      0.352567  
      36A      0.358177    37A      0.359884    38A      0.364077  
      39A      0.378159    40A      0.381988    41A      0.395653  
      42A      0.415314    43A      0.425267    44A      0.431898  
      45A      0.455715    46A      0.488166    47A      0.494781  
      48A      0.532890    49A      0.554230    50A      0.621921  
      51A      0.643052    52A      0.659151    53A      0.689313  
      54A      0.694351    55A      0.699984    56A      0.725590  
      57A      0.758385    58A      0.768099    59A      0.771529  
      60A      0.789664    61A      0.795803    62A      0.807268  
      63A      0.819234    64A      0.830504    65A      0.837642  
      66A      0.844991    67A      0.852878    68A      0.870133  
      69A      0.871625    70A      0.877949    71A      0.893238  
      72A      0.895355    73A      0.909239    74A      0.916965  
      75A      0.934097    76A      0.938229    77A      0.950067  
      78A      0.958204    79A      0.979880    80A      0.989292  
      81A      1.001577    82A      1.007702    83A      1.033338  
      84A      1.036438    85A      1.049925    86A      1.065142  
      87A      1.068097    88A      1.080044    89A      1.103720  
      90A      1.121791    91A      1.134958    92A      1.151616  
      93A      1.166263    94A      1.184874    95A      1.196459  
      96A      1.225189    97A      1.251306    98A      1.279779  
      99A      1.315454   100A      1.347786   101A      1.363822  
     102A      1.378118   103A      1.411940   104A      1.436663  
     105A      1.478655   106A      1.505793   107A      1.548596  
     108A      1.553865   109A      1.586002   110A      1.607179  
     111A      1.635176   112A      1.693503   113A      1.707504  
     114A      1.714859   115A      1.718460   116A      1.777305  
     117A      1.806517   118A      1.811196   119A      1.827721  
     120A      1.849474   121A      1.869864   122A      1.879547  
     123A      1.928212   124A      1.969335   125A      1.997683  
     126A      2.047394   127A      2.110493   128A      2.125542  
     129A      2.178546   130A      2.195288   131A      2.271216  
     132A      2.318642   133A      2.328052   134A      2.395164  
     135A      2.443456   136A      2.455602   137A      2.474068  
     138A      2.510955   139A      2.529923   140A      2.538367  
     141A      2.547331   142A      2.562005   143A      2.581986  
     144A      2.600449   145A      2.627625   146A      2.638342  
     147A      2.649659   148A      2.680560   149A      2.684210  
     150A      2.709878   151A      2.740449   152A      2.754135  
     153A      2.812611   154A      2.844056   155A      2.901050  
     156A      2.936382   157A      2.974603   158A      3.039787  
     159A      3.160182   160A      3.165830   161A      3.202038  
     162A      3.250125   163A      3.347848   164A      3.402679  
     165A      3.423923   166A      3.444846   167A      3.457240  
     168A      3.505904   169A      3.534752   170A      3.584408  
     171A      3.618236   172A      3.664613   173A      3.814996  
     174A      3.852076   175A      3.915243   176A      3.975437  
     177A      4.104534   178A      4.120687   179A      4.278741  
     180A      4.305495   181A      4.349357   182A      4.368294  
     183A      4.422560   184A      4.425436   185A      4.443079  
     186A      4.446056   187A      4.467350   188A      4.490850  
     189A      4.524792   190A      4.537387   191A      4.630576  
     192A      4.665869   193A      4.686612   194A      4.767691  
     195A      4.785278   196A      4.873446   197A      4.883306  
     198A      4.911503   199A      4.960239   200A      5.006423  
     201A      5.027037   202A      5.036991   203A      5.088553  
     204A      5.113339   205A      5.136648   206A      5.237711  
     207A      5.292335   208A      5.315081   209A      5.402918  
     210A      5.456171   211A      5.503241   212A      5.508644  
     213A      5.534079   214A      5.557608   215A      5.578214  
     216A      5.614757   217A      5.804728   218A      5.830835  
     219A      5.883379   220A      5.969615   221A      6.130772  
     222A      6.279410   223A      6.288921   224A      6.345334  
     225A      6.442689   226A      6.482439   227A      6.588302  
     228A      6.657247   229A      6.732925   230A      6.902472  
     231A      6.915322   232A      6.942374   233A      6.980490  
     234A      7.018754   235A      7.036645   236A      7.067509  
     237A      7.187949   238A      7.252357   239A      7.579618  
     240A      7.607388   241A      7.682732   242A      7.778382  
     243A      7.844120   244A      7.869057   245A      7.987910  
     246A      8.074537   247A      8.115942   248A      8.207544  
     249A      8.244965   250A      8.317661   251A      8.439080  
     252A      8.606089   253A      8.744067   254A      8.790883  
     255A      9.040543   256A      9.612813   257A      9.827655  
     258A      9.850532   259A      9.997697   260A     10.059159  
     261A     10.164401   262A     10.304014   263A     10.334313  
     264A     11.030946   265A     11.086327   266A     11.628770  
     267A     11.682829   268A     11.887063   269A     12.181879  
     270A     13.417748   271A     13.531394   272A     13.955118  
     273A     14.093109   274A     14.871094   275A     63.828485  
     276A     65.650912  

    Final Occupation by Irrep:
              A 
    DOCC [     5 ]
    NA   [     5 ]
    NB   [     5 ]

  @DF-RKS Final Energy:   -76.43059482007853

   => Energetics <=

    Nuclear Repulsion Energy =              8.9849419856635429
    One-Electron Energy =                -122.6865130925613414
    Two-Electron Energy =                  46.5501095011464940
    DFT Exchange-Correlation Energy =      -9.2791330543272252
    Empirical Dispersion Energy =          -0.0000001600000000
    VV10 Nonlocal Energy =                  0.0000000000000000
    Total Energy =                        -76.4305948200785252

Computation Completed


Properties will be evaluated at   0.000000,   0.000000,   0.000000 [a0]

Properties computed using the SCF density matrix


 Multipole Moments:

 ------------------------------------------------------------------------------------
     Multipole            Electronic (a.u.)      Nuclear  (a.u.)        Total (a.u.)
 ------------------------------------------------------------------------------------

 L = 1.  Multiply by 2.5417464519 to convert [e a0] to [Debye]
 Dipole X            :         59.8669823          -59.7539071            0.1130752
 Dipole Y            :         20.0625914          -20.3913500           -0.3287586
 Dipole Z            :        -44.9323499           45.5551105            0.6227606
 Magnitude           :                                                    0.7132314

 ------------------------------------------------------------------------------------

*** tstop() called on d-19-15-2 at Tue Sep 19 14:16:10 2023
Module time:
	user time   =      52.51 seconds =       0.88 minutes
	system time =       0.32 seconds =       0.01 minutes
	total time  =         55 seconds =       0.92 minutes
Total time:
	user time   =  104632.54 seconds =    1743.88 minutes
	system time =   53813.05 seconds =     896.88 minutes
	total time  =     178066 seconds =    2967.77 minutes

    Psi4 stopped on: Tuesday, 19 September 2023 02:16PM
    Psi4 wall time for execution: 0:00:54.70


    -----------------------------------------------------------------------
          Psi4: An Open-Source Ab Initio Electronic Structure Package
                               Psi4 1.7 release

                         Git: Rev {HEAD} 6ce35a5 


    D. G. A. Smith, L. A. Burns, A. C. Simmonett, R. M. Parrish,
    M. C. Schieber, R. Galvelis, P. Kraus, H. Kruse, R. Di Remigio,
    A. Alenaizan, A. M. James, S. Lehtola, J. P. Misiewicz, M. Scheurer,
    R. A. Shaw, J. B. Schriber, Y. Xie, Z. L. Glick, D. A. Sirianni,
    J. S. O'Brien, J. M. Waldrop, A. Kumar, E. G. Hohenstein,
    B. P. Pritchard, B. R. Brooks, H. F. Schaefer III, A. Yu. Sokolov,
    K. Patkowski, A. E. DePrince III, U. Bozkaya, R. A. King,
    F. A. Evangelista, J. M. Turney, T. D. Crawford, C. D. Sherrill,
    J. Chem. Phys. 152(18) 184108 (2020). https://doi.org/10.1063/5.0006002

                            Additional Code Authors
    E. T. Seidl, C. L. Janssen, E. F. Valeev, M. L. Leininger,
    J. F. Gonthier, R. M. Richard, H. R. McAlexander, M. Saitow, X. Wang,
    P. Verma, M. H. Lechner, A. Jiang, S. Behnle, A. G. Heide,
    M. F. Herbst, and D. L. Poole

             Previous Authors, Complete List of Code Contributors,
                       and Citations for Specific Modules
    https://github.com/psi4/psi4/blob/master/codemeta.json
    https://github.com/psi4/psi4/graphs/contributors
    http://psicode.org/psi4manual/master/introduction.html#citing-psifour

    -----------------------------------------------------------------------


    Psi4 started on: Sunday, 17 September 2023 12:48PM

    Process ID: 258105
    Host:       d-19-15-2
    PSIDATADIR: /home/gridsan/kfisher/.conda/envs/p4env/share/psi4
    Memory:     18.6 GiB
    Threads:    1
    
  ==> Input QCSchema <==

--------------------------------------------------------------------------
{'driver': 'energy',
 'extras': {'psiapi': True, 'wfn_qcvars_only': True},
 'id': None,
 'keywords': {'D_CONVERGENCE': 1e-10, 'E_CONVERGENCE': 1e-10, 'function_kwargs': {'dft_functional': 'scan-d3zero2b'}},
 'model': {'basis': 'aug-cc-pvtz', 'method': 'scf'},
 'molecule': {'atom_labels': ['', '', '', '', '', '', '', '', ''],
              'atomic_numbers': [1, 1, 8, 1, 1, 8, 1, 1, 8],
              'fix_com': True,
              'fix_orientation': True,
              'fix_symmetry': 'c1',
              'fragment_charges': [0.0, 0.0, 0.0],
              'fragment_multiplicities': [1, 1, 1],
              'fragments': [[0, 1, 2], [3, 4, 5], [6, 7, 8]],
              'geometry': [-4.395668451131715, -2.556518842312072, 5.004012468048863, -7.276735604552182,
                           -2.340374368034385, 5.656810440135804, -6.010187883890869, -1.9368071022981868,
                           4.3617859451611745, -6.2618102654205146, -2.979964174956484, 0.46718064386595365,
                           -6.10548093314398, -2.2969725556794636, -2.4562973495292453, -6.10055439823765,
                           -3.722620740802205, -1.202151240025168, -2.438538383703597, -9.023254674845916,
                           -2.2117024626176915, -2.889662024681536, -6.1907447334177546, -1.703594489374536,
                           -1.5037616396830085, -7.481255523055421, -1.6677074564164167],
              'mass_numbers': [1, 1, 16, 1, 1, 16, 1, 1, 16],
              'masses': [1.00782503223, 1.00782503223, 15.99491461957, 1.00782503223, 1.00782503223, 15.99491461957,
                         1.00782503223, 1.00782503223, 15.99491461957],
              'molecular_charge': 0.0,
              'molecular_multiplicity': 1,
              'name': 'H6O3',
              'provenance': {'creator': 'QCElemental',
                             'routine': 'qcelemental.molparse.from_string',
                             'version': 'v0.25.1'},
              'real': [False, False, False, True, True, True, False, False, False],
              'schema_name': 'qcschema_molecule',
              'schema_version': 2,
              'symbols': ['H', 'H', 'O', 'H', 'H', 'O', 'H', 'H', 'O'],
              'validated': True},
 'protocols': {'stdout': True},
 'provenance': {'creator': 'QCElemental', 'routine': 'qcelemental.models.results', 'version': 'v0.25.1'},
 'schema_name': 'qcschema_input',
 'schema_version': 1}
--------------------------------------------------------------------------

Scratch directory: /home/gridsan/kfisher/scratch/

*** tstart() called on d-19-15-2
*** at Tue Sep 19 14:16:10 2023

   => Loading Basis Set <=

    Name: AUG-CC-PVTZ
    Role: ORBITAL
    Keyword: BASIS
    atoms 1-2, 4-5, 7-8 entry H          line    40 file /home/gridsan/kfisher/.conda/envs/p4env/share/psi4/basis/aug-cc-pvtz.gbs 
    atoms 3, 6, 9       entry O          line   331 file /home/gridsan/kfisher/.conda/envs/p4env/share/psi4/basis/aug-cc-pvtz.gbs 

   => SCAN-D3: Empirical Dispersion <=

    Grimme's -D3 (zero-damping) Dispersion Correction
    Grimme S.; Antony J.; Ehrlich S.; Krieg H. (2010), J. Chem. Phys., 132: 154104
    Parametrisation from:    J.G. Brandenburg, J. E. Bates, J. Sun, J.P. Perdew, Phys. Rev. B 94, 115144, 2016

        s6 =       1.000000
        s8 =       0.000000
       sr6 =       1.324000
    alpha6 =      14.000000
       sr8 =       1.000000


         ---------------------------------------------------------
                                   SCF
               by Justin Turney, Rob Parrish, Andy Simmonett
                          and Daniel G. A. Smith
                              RKS Reference
                        1 Threads,  19073 MiB Core
         ---------------------------------------------------------

  ==> Geometry <==

    Molecular point group: c1
    Full point group: C1

    Geometry (in Bohr), charge = 0, multiplicity = 1:

       Center              X                  Y                   Z               Mass       
    ------------   -----------------  -----------------  -----------------  -----------------
      Gh(H)          -4.395668451132    -2.556518842312     5.004012468049     1.007825032230
      Gh(H)          -7.276735604552    -2.340374368034     5.656810440136     1.007825032230
      Gh(O)          -6.010187883891    -1.936807102298     4.361785945161    15.994914619570
         H           -6.261810265421    -2.979964174956     0.467180643866     1.007825032230
         H           -6.105480933144    -2.296972555679    -2.456297349529     1.007825032230
         O           -6.100554398238    -3.722620740802    -1.202151240025    15.994914619570
      Gh(H)          -2.438538383704    -9.023254674846    -2.211702462618     1.007825032230
      Gh(H)          -2.889662024682    -6.190744733418    -1.703594489375     1.007825032230
      Gh(O)          -1.503761639683    -7.481255523055    -1.667707456416    15.994914619570

  Running in c1 symmetry.

  Rotational constants: A =      0.06318  B =      0.02564  C =      0.02019 [cm^-1]
  Rotational constants: A =   1894.04778  B =    768.69883  C =    605.32539 [MHz]
  Nuclear repulsion =    8.907487348629633

  Charge       = 0
  Multiplicity = 1
  Electrons    = 10
  Nalpha       = 5
  Nbeta        = 5

  ==> Algorithm <==

  SCF Algorithm Type is DF.
  DIIS enabled.
  MOM disabled.
  Fractional occupation disabled.
  Guess Type is SAD.
  Energy threshold   = 1.00e-10
  Density threshold  = 1.00e-10
  Integral threshold = 1.00e-12

  ==> Primary Basis <==

  Basis Set: AUG-CC-PVTZ
    Blend: AUG-CC-PVTZ
    Number of shells: 96
    Number of basis functions: 276
    Number of Cartesian functions: 315
    Spherical Harmonics?: true
    Max angular momentum: 3

  ==> DFT Potential <==

   => Composite Functional: SCAN-D3ZERO2B <= 

    SCAN Meta-GGA XC Functional
(10.1103/PhysRevLett.115.036402)
    J. Sun, A. Ruzsinszky, J. P. Perdew  Phys. Rev. Lett. 115, 036402, 2015


    Deriv               =              1
    GGA                 =           TRUE
    Meta                =           TRUE

    Exchange Hybrid     =          FALSE
    MP2 Hybrid          =          FALSE

   => Exchange Functionals <=

    1.0000   XC_MGGA_X_SCAN

   => Correlation Functionals <=

    1.0000   XC_MGGA_C_SCAN

   => LibXC Density Thresholds  <==

    XC_MGGA_C_SCAN:  1.00E-15 
    XC_MGGA_X_SCAN:  1.00E-15 

   => Molecular Quadrature <=

    Radial Scheme          =       TREUTLER
    Pruning Scheme         =           NONE
    Nuclear Scheme         =       TREUTLER

    Blocking Scheme        =         OCTREE
    BS radius alpha        =              1
    Pruning alpha          =              1
    Radial Points          =             75
    Spherical Points       =            302
    Total Points           =         198308
    Total Blocks           =           1544
    Max Points             =            256
    Max Functions          =            264
    Weights Tolerance      =       1.00E-15

   => Loading Basis Set <=

    Name: (AUG-CC-PVTZ AUX)
    Role: JKFIT
    Keyword: DF_BASIS_SCF
    atoms 1-2, 4-5, 7-8 entry H          line    70 file /home/gridsan/kfisher/.conda/envs/p4env/share/psi4/basis/aug-cc-pvtz-jkfit.gbs 
    atoms 3, 6, 9       entry O          line   286 file /home/gridsan/kfisher/.conda/envs/p4env/share/psi4/basis/aug-cc-pvtz-jkfit.gbs 

  ==> Integral Setup <==

  DFHelper Memory: AOs need 0.325 GiB; user supplied 11.105 GiB. Using in-core AOs.

  ==> MemDFJK: Density-Fitted J/K Matrices <==

    J tasked:                   Yes
    K tasked:                    No
    wK tasked:                   No
    OpenMP threads:               1
    Memory [MiB]:             11371
    Algorithm:                 Core
    Schwarz Cutoff:           1E-12
    Mask sparsity (%):       8.1285
    Fitting Condition:        1E-10

   => Auxiliary Basis Set <=

  Basis Set: (AUG-CC-PVTZ AUX)
    Blend: AUG-CC-PVTZ-JKFIT
    Number of shells: 174
    Number of basis functions: 588
    Number of Cartesian functions: 723
    Spherical Harmonics?: true
    Max angular momentum: 4

  Cached 100.0% of DFT collocation blocks in 2.865 [GiB].

  Minimum eigenvalue in the overlap matrix is 1.9357795127E-04.
  Reciprocal condition number of the overlap matrix is 1.9907037397E-05.
    Using symmetric orthogonalization.

  ==> Pre-Iterations <==

  SCF Guess: Superposition of Atomic Densities via on-the-fly atomic UHF (no occupation information).

   -------------------------
    Irrep   Nso     Nmo    
   -------------------------
     A        276     276 
   -------------------------
    Total     276     276
   -------------------------

  ==> Iterations <==

                           Total Energy        Delta E     RMS |[F,P]|

   @DF-RKS iter SAD:   -76.04844772769545   -7.60484e+01   0.00000e+00 
   @DF-RKS iter   1:   -76.24202289830097   -1.93575e-01   2.63385e-03 DIIS/ADIIS
   @DF-RKS iter   2:   -75.61752767600537    6.24495e-01   5.11121e-03 DIIS/ADIIS
   @DF-RKS iter   3:   -76.42740604979730   -8.09878e-01   2.28026e-04 DIIS/ADIIS
   @DF-RKS iter   4:   -76.42928949667990   -1.88345e-03   2.79406e-05 DIIS
   @DF-RKS iter   5:   -76.42930859484224   -1.90982e-05   7.94331e-06 DIIS
   @DF-RKS iter   6:   -76.42931024936965   -1.65453e-06   5.07949e-07 DIIS
   @DF-RKS iter   7:   -76.42931025539468   -6.02503e-09   1.49956e-07 DIIS
   @DF-RKS iter   8:   -76.42931025600845   -6.13767e-10   4.32696e-08 DIIS
   @DF-RKS iter   9:   -76.42931025606723   -5.87761e-11   2.24070e-09 DIIS
   @DF-RKS iter  10:   -76.42931025606762   -3.97904e-13   1.83985e-10 DIIS
   @DF-RKS iter  11:   -76.42931025606788   -2.55795e-13   2.48031e-11 DIIS
  Energy and wave function converged.


  ==> Post-Iterations <==

   Electrons on quadrature grid:
      Ntotal   =   10.0000030930 ; deviation = 3.093e-06 

    Orbital Energies [Eh]
    ---------------------

    Doubly Occupied:                                                      

       1A    -18.971166     2A     -0.968958     3A     -0.495194  
       4A     -0.350692     5A     -0.276970  

    Virtual:                                                              

       6A     -0.013485     7A      0.027913     8A      0.037392  
       9A      0.046163    10A      0.053049    11A      0.065682  
      12A      0.088631    13A      0.094126    14A      0.106262  
      15A      0.127534    16A      0.130956    17A      0.144100  
      18A      0.151585    19A      0.159206    20A      0.163856  
      21A      0.179287    22A      0.189848    23A      0.196898  
      24A      0.220042    25A      0.232582    26A      0.255743  
      27A      0.263372    28A      0.269170    29A      0.272424  
      30A      0.296765    31A      0.306749    32A      0.308927  
      33A      0.328623    34A      0.336214    35A      0.341775  
      36A      0.351063    37A      0.361521    38A      0.367114  
      39A      0.369850    40A      0.378364    41A      0.392654  
      42A      0.402258    43A      0.411637    44A      0.427425  
      45A      0.447165    46A      0.487415    47A      0.497910  
      48A      0.521302    49A      0.583486    50A      0.625010  
      51A      0.635640    52A      0.652207    53A      0.684424  
      54A      0.686524    55A      0.706905    56A      0.724561  
      57A      0.747958    58A      0.756538    59A      0.769410  
      60A      0.778793    61A      0.791496    62A      0.799286  
      63A      0.799976    64A      0.818238    65A      0.824671  
      66A      0.840134    67A      0.848921    68A      0.859501  
      69A      0.866630    70A      0.873423    71A      0.886011  
      72A      0.894734    73A      0.898483    74A      0.909701  
      75A      0.919964    76A      0.949396    77A      0.952603  
      78A      0.967473    79A      0.972569    80A      0.983263  
      81A      1.005892    82A      1.012618    83A      1.020593  
      84A      1.030673    85A      1.038883    86A      1.052724  
      87A      1.070136    88A      1.091446    89A      1.109209  
      90A      1.118430    91A      1.141096    92A      1.154454  
      93A      1.161750    94A      1.183880    95A      1.211731  
      96A      1.220048    97A      1.234893    98A      1.270572  
      99A      1.280960   100A      1.332376   101A      1.342525  
     102A      1.366868   103A      1.390815   104A      1.412737  
     105A      1.438190   106A      1.476684   107A      1.507290  
     108A      1.557132   109A      1.576567   110A      1.598353  
     111A      1.639786   112A      1.690266   113A      1.705895  
     114A      1.716116   115A      1.730157   116A      1.745242  
     117A      1.787483   118A      1.799666   119A      1.808763  
     120A      1.829191   121A      1.869091   122A      1.889760  
     123A      1.910058   124A      1.949967   125A      1.975482  
     126A      2.033158   127A      2.118673   128A      2.159353  
     129A      2.211161   130A      2.280197   131A      2.308313  
     132A      2.333084   133A      2.379770   134A      2.417354  
     135A      2.431998   136A      2.441981   137A      2.467744  
     138A      2.496119   139A      2.528312   140A      2.543214  
     141A      2.555210   142A      2.560961   143A      2.575649  
     144A      2.610531   145A      2.631559   146A      2.635979  
     147A      2.649629   148A      2.661677   149A      2.686903  
     150A      2.694846   151A      2.734385   152A      2.790703  
     153A      2.825938   154A      2.863827   155A      2.875854  
     156A      2.911009   157A      2.981338   158A      3.049748  
     159A      3.166669   160A      3.178050   161A      3.181645  
     162A      3.183478   163A      3.253875   164A      3.309195  
     165A      3.364680   166A      3.379396   167A      3.421154  
     168A      3.459230   169A      3.534891   170A      3.567196  
     171A      3.608141   172A      3.668686   173A      3.806294  
     174A      3.860817   175A      3.940834   176A      4.021003  
     177A      4.122809   178A      4.142657   179A      4.315194  
     180A      4.336736   181A      4.347659   182A      4.360276  
     183A      4.407720   184A      4.432817   185A      4.447626  
     186A      4.463647   187A      4.487762   188A      4.494317  
     189A      4.566115   190A      4.611845   191A      4.626838  
     192A      4.641948   193A      4.712716   194A      4.736319  
     195A      4.763650   196A      4.809736   197A      4.892957  
     198A      4.928439   199A      4.971261   200A      4.988012  
     201A      4.996263   202A      5.022094   203A      5.028788  
     204A      5.142047   205A      5.197411   206A      5.211713  
     207A      5.255857   208A      5.292984   209A      5.336599  
     210A      5.420012   211A      5.451673   212A      5.533330  
     213A      5.549485   214A      5.611006   215A      5.671902  
     216A      5.708020   217A      5.716444   218A      5.792337  
     219A      5.865946   220A      5.991489   221A      6.164669  
     222A      6.280654   223A      6.312318   224A      6.328461  
     225A      6.413412   226A      6.534079   227A      6.596924  
     228A      6.614982   229A      6.712962   230A      6.892924  
     231A      6.955462   232A      6.968713   233A      7.004997  
     234A      7.045399   235A      7.083007   236A      7.093398  
     237A      7.155055   238A      7.357302   239A      7.592451  
     240A      7.678182   241A      7.715067   242A      7.782174  
     243A      7.847561   244A      7.864784   245A      8.029725  
     246A      8.068806   247A      8.132033   248A      8.145624  
     249A      8.267695   250A      8.278633   251A      8.426216  
     252A      8.652914   253A      8.675188   254A      8.729570  
     255A      8.924117   256A      9.653633   257A      9.752026  
     258A      9.882096   259A      9.959662   260A      9.999624  
     261A     10.094611   262A     10.221476   263A     10.348061  
     264A     11.085706   265A     11.106802   266A     11.663632  
     267A     11.741034   268A     11.805609   269A     12.003835  
     270A     13.386403   271A     13.456742   272A     13.837523  
     273A     14.020721   274A     15.358005   275A     64.099790  
     276A     64.210343  

    Final Occupation by Irrep:
              A 
    DOCC [     5 ]
    NA   [     5 ]
    NB   [     5 ]

  @DF-RKS Final Energy:   -76.42931025606788

   => Energetics <=

    Nuclear Repulsion Energy =              8.9074873486296333
    One-Electron Energy =                -122.5494359061951428
    Two-Electron Energy =                  46.4837564487442449
    DFT Exchange-Correlation Energy =      -9.2711179672466049
    Empirical Dispersion Energy =          -0.0000001800000000
    VV10 Nonlocal Energy =                  0.0000000000000000
    Total Energy =                        -76.4293102560678790

Computation Completed


Properties will be evaluated at   0.000000,   0.000000,   0.000000 [a0]

Properties computed using the SCF density matrix


 Multipole Moments:

 ------------------------------------------------------------------------------------
     Multipole            Electronic (a.u.)      Nuclear  (a.u.)        Total (a.u.)
 ------------------------------------------------------------------------------------

 L = 1.  Multiply by 2.5417464519 to convert [e a0] to [Debye]
 Dipole X            :         61.1177571          -61.1717264           -0.0539693
 Dipole Y            :         35.7506916          -35.0579027            0.6927890
 Dipole Z            :         11.7453835          -11.6063266            0.1390569
 Magnitude           :                                                    0.7086650

 ------------------------------------------------------------------------------------

*** tstop() called on d-19-15-2 at Tue Sep 19 14:17:09 2023
Module time:
	user time   =      53.56 seconds =       0.89 minutes
	system time =       0.63 seconds =       0.01 minutes
	total time  =         59 seconds =       0.98 minutes
Total time:
	user time   =  104686.16 seconds =    1744.77 minutes
	system time =   53813.68 seconds =     896.89 minutes
	total time  =     178125 seconds =    2968.75 minutes

    Psi4 stopped on: Tuesday, 19 September 2023 02:17PM
    Psi4 wall time for execution: 0:00:59.53


    -----------------------------------------------------------------------
          Psi4: An Open-Source Ab Initio Electronic Structure Package
                               Psi4 1.7 release

                         Git: Rev {HEAD} 6ce35a5 


    D. G. A. Smith, L. A. Burns, A. C. Simmonett, R. M. Parrish,
    M. C. Schieber, R. Galvelis, P. Kraus, H. Kruse, R. Di Remigio,
    A. Alenaizan, A. M. James, S. Lehtola, J. P. Misiewicz, M. Scheurer,
    R. A. Shaw, J. B. Schriber, Y. Xie, Z. L. Glick, D. A. Sirianni,
    J. S. O'Brien, J. M. Waldrop, A. Kumar, E. G. Hohenstein,
    B. P. Pritchard, B. R. Brooks, H. F. Schaefer III, A. Yu. Sokolov,
    K. Patkowski, A. E. DePrince III, U. Bozkaya, R. A. King,
    F. A. Evangelista, J. M. Turney, T. D. Crawford, C. D. Sherrill,
    J. Chem. Phys. 152(18) 184108 (2020). https://doi.org/10.1063/5.0006002

                            Additional Code Authors
    E. T. Seidl, C. L. Janssen, E. F. Valeev, M. L. Leininger,
    J. F. Gonthier, R. M. Richard, H. R. McAlexander, M. Saitow, X. Wang,
    P. Verma, M. H. Lechner, A. Jiang, S. Behnle, A. G. Heide,
    M. F. Herbst, and D. L. Poole

             Previous Authors, Complete List of Code Contributors,
                       and Citations for Specific Modules
    https://github.com/psi4/psi4/blob/master/codemeta.json
    https://github.com/psi4/psi4/graphs/contributors
    http://psicode.org/psi4manual/master/introduction.html#citing-psifour

    -----------------------------------------------------------------------


    Psi4 started on: Sunday, 17 September 2023 12:48PM

    Process ID: 258105
    Host:       d-19-15-2
    PSIDATADIR: /home/gridsan/kfisher/.conda/envs/p4env/share/psi4
    Memory:     18.6 GiB
    Threads:    1
    
  ==> Input QCSchema <==

--------------------------------------------------------------------------
{'driver': 'energy',
 'extras': {'psiapi': True, 'wfn_qcvars_only': True},
 'id': None,
 'keywords': {'D_CONVERGENCE': 1e-10, 'E_CONVERGENCE': 1e-10, 'function_kwargs': {'dft_functional': 'scan-d3zero2b'}},
 'model': {'basis': 'aug-cc-pvtz', 'method': 'scf'},
 'molecule': {'atom_labels': ['', '', '', '', '', '', '', '', ''],
              'atomic_numbers': [1, 1, 8, 1, 1, 8, 1, 1, 8],
              'fix_com': True,
              'fix_orientation': True,
              'fix_symmetry': 'c1',
              'fragment_charges': [0.0, 0.0, 0.0],
              'fragment_multiplicities': [1, 1, 1],
              'fragments': [[0, 1, 2], [3, 4, 5], [6, 7, 8]],
              'geometry': [-4.395668451131715, -2.556518842312072, 5.004012468048863, -7.276735604552182,
                           -2.340374368034385, 5.656810440135804, -6.010187883890869, -1.9368071022981868,
                           4.3617859451611745, -6.2618102654205146, -2.979964174956484, 0.46718064386595365,
                           -6.10548093314398, -2.2969725556794636, -2.4562973495292453, -6.10055439823765,
                           -3.722620740802205, -1.202151240025168, -2.438538383703597, -9.023254674845916,
                           -2.2117024626176915, -2.889662024681536, -6.1907447334177546, -1.703594489374536,
                           -1.5037616396830085, -7.481255523055421, -1.6677074564164167],
              'mass_numbers': [1, 1, 16, 1, 1, 16, 1, 1, 16],
              'masses': [1.00782503223, 1.00782503223, 15.99491461957, 1.00782503223, 1.00782503223, 15.99491461957,
                         1.00782503223, 1.00782503223, 15.99491461957],
              'molecular_charge': 0.0,
              'molecular_multiplicity': 1,
              'name': 'H6O3',
              'provenance': {'creator': 'QCElemental',
                             'routine': 'qcelemental.molparse.from_string',
                             'version': 'v0.25.1'},
              'real': [False, False, False, True, True, True, True, True, True],
              'schema_name': 'qcschema_molecule',
              'schema_version': 2,
              'symbols': ['H', 'H', 'O', 'H', 'H', 'O', 'H', 'H', 'O'],
              'validated': True},
 'protocols': {'stdout': True},
 'provenance': {'creator': 'QCElemental', 'routine': 'qcelemental.models.results', 'version': 'v0.25.1'},
 'schema_name': 'qcschema_input',
 'schema_version': 1}
--------------------------------------------------------------------------

Scratch directory: /home/gridsan/kfisher/scratch/

*** tstart() called on d-19-15-2
*** at Tue Sep 19 14:17:09 2023

   => Loading Basis Set <=

    Name: AUG-CC-PVTZ
    Role: ORBITAL
    Keyword: BASIS
    atoms 1-2, 4-5, 7-8 entry H          line    40 file /home/gridsan/kfisher/.conda/envs/p4env/share/psi4/basis/aug-cc-pvtz.gbs 
    atoms 3, 6, 9       entry O          line   331 file /home/gridsan/kfisher/.conda/envs/p4env/share/psi4/basis/aug-cc-pvtz.gbs 

   => SCAN-D3: Empirical Dispersion <=

    Grimme's -D3 (zero-damping) Dispersion Correction
    Grimme S.; Antony J.; Ehrlich S.; Krieg H. (2010), J. Chem. Phys., 132: 154104
    Parametrisation from:    J.G. Brandenburg, J. E. Bates, J. Sun, J.P. Perdew, Phys. Rev. B 94, 115144, 2016

        s6 =       1.000000
        s8 =       0.000000
       sr6 =       1.324000
    alpha6 =      14.000000
       sr8 =       1.000000


         ---------------------------------------------------------
                                   SCF
               by Justin Turney, Rob Parrish, Andy Simmonett
                          and Daniel G. A. Smith
                              RKS Reference
                        1 Threads,  19073 MiB Core
         ---------------------------------------------------------

  ==> Geometry <==

    Molecular point group: c1
    Full point group: C1

    Geometry (in Bohr), charge = 0, multiplicity = 1:

       Center              X                  Y                   Z               Mass       
    ------------   -----------------  -----------------  -----------------  -----------------
      Gh(H)          -4.395668451132    -2.556518842312     5.004012468049     1.007825032230
      Gh(H)          -7.276735604552    -2.340374368034     5.656810440136     1.007825032230
      Gh(O)          -6.010187883891    -1.936807102298     4.361785945161    15.994914619570
         H           -6.261810265421    -2.979964174956     0.467180643866     1.007825032230
         H           -6.105480933144    -2.296972555679    -2.456297349529     1.007825032230
         O           -6.100554398238    -3.722620740802    -1.202151240025    15.994914619570
         H           -2.438538383704    -9.023254674846    -2.211702462618     1.007825032230
         H           -2.889662024682    -6.190744733418    -1.703594489375     1.007825032230
         O           -1.503761639683    -7.481255523055    -1.667707456416    15.994914619570

  Running in c1 symmetry.

  Rotational constants: A =      0.06318  B =      0.02564  C =      0.02019 [cm^-1]
  Rotational constants: A =   1894.04778  B =    768.69883  C =    605.32539 [MHz]
  Nuclear repulsion =   34.614401198813994

  Charge       = 0
  Multiplicity = 1
  Electrons    = 20
  Nalpha       = 10
  Nbeta        = 10

  ==> Algorithm <==

  SCF Algorithm Type is DF.
  DIIS enabled.
  MOM disabled.
  Fractional occupation disabled.
  Guess Type is SAD.
  Energy threshold   = 1.00e-10
  Density threshold  = 1.00e-10
  Integral threshold = 1.00e-12

  ==> Primary Basis <==

  Basis Set: AUG-CC-PVTZ
    Blend: AUG-CC-PVTZ
    Number of shells: 96
    Number of basis functions: 276
    Number of Cartesian functions: 315
    Spherical Harmonics?: true
    Max angular momentum: 3

  ==> DFT Potential <==

   => Composite Functional: SCAN-D3ZERO2B <= 

    SCAN Meta-GGA XC Functional
(10.1103/PhysRevLett.115.036402)
    J. Sun, A. Ruzsinszky, J. P. Perdew  Phys. Rev. Lett. 115, 036402, 2015


    Deriv               =              1
    GGA                 =           TRUE
    Meta                =           TRUE

    Exchange Hybrid     =          FALSE
    MP2 Hybrid          =          FALSE

   => Exchange Functionals <=

    1.0000   XC_MGGA_X_SCAN

   => Correlation Functionals <=

    1.0000   XC_MGGA_C_SCAN

   => LibXC Density Thresholds  <==

    XC_MGGA_C_SCAN:  1.00E-15 
    XC_MGGA_X_SCAN:  1.00E-15 

   => Molecular Quadrature <=

    Radial Scheme          =       TREUTLER
    Pruning Scheme         =           NONE
    Nuclear Scheme         =       TREUTLER

    Blocking Scheme        =         OCTREE
    BS radius alpha        =              1
    Pruning alpha          =              1
    Radial Points          =             75
    Spherical Points       =            302
    Total Points           =         198308
    Total Blocks           =           1544
    Max Points             =            256
    Max Functions          =            264
    Weights Tolerance      =       1.00E-15

   => Loading Basis Set <=

    Name: (AUG-CC-PVTZ AUX)
    Role: JKFIT
    Keyword: DF_BASIS_SCF
    atoms 1-2, 4-5, 7-8 entry H          line    70 file /home/gridsan/kfisher/.conda/envs/p4env/share/psi4/basis/aug-cc-pvtz-jkfit.gbs 
    atoms 3, 6, 9       entry O          line   286 file /home/gridsan/kfisher/.conda/envs/p4env/share/psi4/basis/aug-cc-pvtz-jkfit.gbs 

  ==> Integral Setup <==

  DFHelper Memory: AOs need 0.325 GiB; user supplied 11.105 GiB. Using in-core AOs.

  ==> MemDFJK: Density-Fitted J/K Matrices <==

    J tasked:                   Yes
    K tasked:                    No
    wK tasked:                   No
    OpenMP threads:               1
    Memory [MiB]:             11371
    Algorithm:                 Core
    Schwarz Cutoff:           1E-12
    Mask sparsity (%):       8.1285
    Fitting Condition:        1E-10

   => Auxiliary Basis Set <=

  Basis Set: (AUG-CC-PVTZ AUX)
    Blend: AUG-CC-PVTZ-JKFIT
    Number of shells: 174
    Number of basis functions: 588
    Number of Cartesian functions: 723
    Spherical Harmonics?: true
    Max angular momentum: 4

  Cached 100.0% of DFT collocation blocks in 2.865 [GiB].

  Minimum eigenvalue in the overlap matrix is 1.9357795127E-04.
  Reciprocal condition number of the overlap matrix is 1.9907037397E-05.
    Using symmetric orthogonalization.

  ==> Pre-Iterations <==

  SCF Guess: Superposition of Atomic Densities via on-the-fly atomic UHF (no occupation information).

   -------------------------
    Irrep   Nso     Nmo    
   -------------------------
     A        276     276 
   -------------------------
    Total     276     276
   -------------------------

  ==> Iterations <==

                           Total Energy        Delta E     RMS |[F,P]|

   @DF-RKS iter SAD:  -152.12364771685884   -1.52124e+02   0.00000e+00 
   @DF-RKS iter   1:  -152.51091537000050   -3.87268e-01   3.63902e-03 DIIS/ADIIS
   @DF-RKS iter   2:  -151.42555719460069    1.08536e+00   6.85074e-03 DIIS/ADIIS
   @DF-RKS iter   3:  -152.86278852082950   -1.43723e+00   3.11688e-04 DIIS/ADIIS
   @DF-RKS iter   4:  -152.86440749127573   -1.61897e-03   2.54738e-04 DIIS/ADIIS
   @DF-RKS iter   5:  -152.86605502866621   -1.64754e-03   4.48082e-05 DIIS
   @DF-RKS iter   6:  -152.86610752633339   -5.24977e-05   7.70388e-06 DIIS
   @DF-RKS iter   7:  -152.86610933793207   -1.81160e-06   9.56091e-07 DIIS
   @DF-RKS iter   8:  -152.86610936309475   -2.51627e-08   2.27655e-07 DIIS
   @DF-RKS iter   9:  -152.86610936457646   -1.48171e-09   3.32534e-08 DIIS
   @DF-RKS iter  10:  -152.86610936461153   -3.50724e-11   2.95551e-09 DIIS
   @DF-RKS iter  11:  -152.86610936461173   -1.98952e-13   6.56621e-10 DIIS
   @DF-RKS iter  12:  -152.86610936461187   -1.42109e-13   1.21347e-10 DIIS
   @DF-RKS iter  13:  -152.86610936461179    8.52651e-14   1.96104e-11 DIIS
  Energy and wave function converged.


  ==> Post-Iterations <==

   Electrons on quadrature grid:
      Ntotal   =   19.9999980860 ; deviation = -1.914e-06 

    Orbital Energies [Eh]
    ---------------------

    Doubly Occupied:                                                      

       1A    -18.995284     2A    -18.949476     3A     -0.993063  
       4A     -0.942987     5A     -0.517745     6A     -0.456699  
       7A     -0.379064     8A     -0.336805     9A     -0.301042  
      10A     -0.254635  

    Virtual:                                                              

      11A     -0.026950    12A      0.014517    13A      0.023479  
      14A      0.042117    15A      0.047925    16A      0.060391  
      17A      0.083509    18A      0.086045    19A      0.096815  
      20A      0.099433    21A      0.121531    22A      0.131140  
      23A      0.145590    24A      0.153500    25A      0.156385  
      26A      0.162876    27A      0.173634    28A      0.177504  
      29A      0.198738    30A      0.205313    31A      0.207164  
      32A      0.236492    33A      0.250814    34A      0.256653  
      35A      0.270097    36A      0.275291    37A      0.278198  
      38A      0.294665    39A      0.320714    40A      0.323261  
      41A      0.333750    42A      0.342150    43A      0.348704  
      44A      0.352384    45A      0.359016    46A      0.368215  
      47A      0.373492    48A      0.389801    49A      0.407674  
      50A      0.424789    51A      0.476949    52A      0.492007  
      53A      0.506139    54A      0.525844    55A      0.554370  
      56A      0.598355    57A      0.614212    58A      0.617494  
      59A      0.622837    60A      0.640234    61A      0.656887  
      62A      0.663812    63A      0.693574    64A      0.726715  
      65A      0.734579    66A      0.755386    67A      0.757361  
      68A      0.762430    69A      0.787865    70A      0.794159  
      71A      0.804740    72A      0.812841    73A      0.815756  
      74A      0.830153    75A      0.841780    76A      0.843346  
      77A      0.852631    78A      0.868388    79A      0.875682  
      80A      0.885290    81A      0.900442    82A      0.913153  
      83A      0.932336    84A      0.932956    85A      0.948828  
      86A      0.958366    87A      0.963204    88A      0.979816  
      89A      1.009637    90A      1.019316    91A      1.029793  
      92A      1.037730    93A      1.063880    94A      1.079922  
      95A      1.091133    96A      1.110598    97A      1.124437  
      98A      1.131986    99A      1.145229   100A      1.155900  
     101A      1.173882   102A      1.196160   103A      1.205815  
     104A      1.234623   105A      1.264069   106A      1.280398  
     107A      1.304523   108A      1.338341   109A      1.368106  
     110A      1.398808   111A      1.410388   112A      1.431128  
     113A      1.440889   114A      1.486851   115A      1.507415  
     116A      1.523825   117A      1.550758   118A      1.577003  
     119A      1.627379   120A      1.690878   121A      1.699160  
     122A      1.724949   123A      1.776406   124A      1.782393  
     125A      1.805593   126A      1.818987   127A      1.828827  
     128A      1.848611   129A      1.880764   130A      1.963348  
     131A      2.021319   132A      2.084033   133A      2.090583  
     134A      2.135282   135A      2.165164   136A      2.206526  
     137A      2.212001   138A      2.256234   139A      2.264133  
     140A      2.278977   141A      2.290631   142A      2.324347  
     143A      2.336203   144A      2.389330   145A      2.422668  
     146A      2.430400   147A      2.460113   148A      2.513412  
     149A      2.532572   150A      2.542861   151A      2.549408  
     152A      2.602356   153A      2.602669   154A      2.613289  
     155A      2.625041   156A      2.649806   157A      2.675349  
     158A      2.689264   159A      2.707562   160A      2.790721  
     161A      2.793965   162A      2.832622   163A      2.842206  
     164A      2.869124   165A      2.905626   166A      3.033192  
     167A      3.162173   168A      3.178166   169A      3.250839  
     170A      3.305230   171A      3.363161   172A      3.464847  
     173A      3.501145   174A      3.537733   175A      3.663862  
     176A      3.726924   177A      3.802285   178A      3.812549  
     179A      3.930099   180A      3.948363   181A      3.991638  
     182A      4.028184   183A      4.098803   184A      4.115713  
     185A      4.137015   186A      4.150027   187A      4.237171  
     188A      4.260792   189A      4.285080   190A      4.290188  
     191A      4.320767   192A      4.328099   193A      4.336845  
     194A      4.387968   195A      4.414696   196A      4.459450  
     197A      4.463382   198A      4.483299   199A      4.536764  
     200A      4.551229   201A      4.612001   202A      4.633079  
     203A      4.682190   204A      4.741091   205A      4.796408  
     206A      4.913258   207A      4.926751   208A      4.965760  
     209A      4.978911   210A      5.008431   211A      5.020209  
     212A      5.026602   213A      5.080160   214A      5.123108  
     215A      5.134905   216A      5.182221   217A      5.220972  
     218A      5.246673   219A      5.293227   220A      5.438911  
     221A      5.448079   222A      5.540823   223A      5.588342  
     224A      5.661102   225A      5.787784   226A      5.939041  
     227A      5.985131   228A      6.163030   229A      6.273750  
     230A      6.288650   231A      6.306328   232A      6.475482  
     233A      6.544399   234A      6.605390   235A      6.617379  
     236A      6.653580   237A      6.843600   238A      6.863793  
     239A      6.880937   240A      6.923258   241A      6.958070  
     242A      6.959872   243A      6.977261   244A      7.009111  
     245A      7.014393   246A      7.030360   247A      7.050596  
     248A      7.086974   249A      7.155579   250A      7.267411  
     251A      7.361240   252A      7.569399   253A      7.600877  
     254A      7.629064   255A      7.664528   256A      7.776836  
     257A      7.840084   258A      8.062474   259A      8.140143  
     260A      8.263687   261A      8.383565   262A      8.408492  
     263A      8.647573   264A      8.723019   265A      9.744389  
     266A      9.953168   267A      9.993454   268A     10.214568  
     269A     11.079693   270A     11.733908   271A     11.994767  
     272A     13.379886   273A     13.829734   274A     14.635687  
     275A     15.430604   276A     64.122793  

    Final Occupation by Irrep:
              A 
    DOCC [    10 ]
    NA   [    10 ]
    NB   [    10 ]

  @DF-RKS Final Energy:  -152.86610936461179

   => Energetics <=

    Nuclear Repulsion Energy =             34.6144011988139937
    One-Electron Energy =                -278.7128861046733164
    Two-Electron Energy =                 109.7714172064478930
    DFT Exchange-Correlation Energy =     -18.5388377952003474
    Empirical Dispersion Energy =          -0.0002038700000000
    VV10 Nonlocal Energy =                  0.0000000000000000
    Total Energy =                       -152.8661093646117877

Computation Completed


Properties will be evaluated at   0.000000,   0.000000,   0.000000 [a0]

Properties computed using the SCF density matrix


 Multipole Moments:

 ------------------------------------------------------------------------------------
     Multipole            Electronic (a.u.)      Nuclear  (a.u.)        Total (a.u.)
 ------------------------------------------------------------------------------------

 L = 1.  Multiply by 2.5417464519 to convert [e a0] to [Debye]
 Dipole X            :         77.5961425          -78.5300199           -0.9338774
 Dipole Y            :        110.8874613         -110.1219462            0.7655150
 Dipole Z            :         28.8517656          -28.8632832           -0.0115176
 Magnitude           :                                                    1.2075897

 ------------------------------------------------------------------------------------

*** tstop() called on d-19-15-2 at Tue Sep 19 14:18:11 2023
Module time:
	user time   =      59.99 seconds =       1.00 minutes
	system time =       0.42 seconds =       0.01 minutes
	total time  =         62 seconds =       1.03 minutes
Total time:
	user time   =  104746.21 seconds =    1745.77 minutes
	system time =   53814.10 seconds =     896.90 minutes
	total time  =     178187 seconds =    2969.78 minutes

    Psi4 stopped on: Tuesday, 19 September 2023 02:18PM
    Psi4 wall time for execution: 0:01:01.99


    -----------------------------------------------------------------------
          Psi4: An Open-Source Ab Initio Electronic Structure Package
                               Psi4 1.7 release

                         Git: Rev {HEAD} 6ce35a5 


    D. G. A. Smith, L. A. Burns, A. C. Simmonett, R. M. Parrish,
    M. C. Schieber, R. Galvelis, P. Kraus, H. Kruse, R. Di Remigio,
    A. Alenaizan, A. M. James, S. Lehtola, J. P. Misiewicz, M. Scheurer,
    R. A. Shaw, J. B. Schriber, Y. Xie, Z. L. Glick, D. A. Sirianni,
    J. S. O'Brien, J. M. Waldrop, A. Kumar, E. G. Hohenstein,
    B. P. Pritchard, B. R. Brooks, H. F. Schaefer III, A. Yu. Sokolov,
    K. Patkowski, A. E. DePrince III, U. Bozkaya, R. A. King,
    F. A. Evangelista, J. M. Turney, T. D. Crawford, C. D. Sherrill,
    J. Chem. Phys. 152(18) 184108 (2020). https://doi.org/10.1063/5.0006002

                            Additional Code Authors
    E. T. Seidl, C. L. Janssen, E. F. Valeev, M. L. Leininger,
    J. F. Gonthier, R. M. Richard, H. R. McAlexander, M. Saitow, X. Wang,
    P. Verma, M. H. Lechner, A. Jiang, S. Behnle, A. G. Heide,
    M. F. Herbst, and D. L. Poole

             Previous Authors, Complete List of Code Contributors,
                       and Citations for Specific Modules
    https://github.com/psi4/psi4/blob/master/codemeta.json
    https://github.com/psi4/psi4/graphs/contributors
    http://psicode.org/psi4manual/master/introduction.html#citing-psifour

    -----------------------------------------------------------------------


    Psi4 started on: Sunday, 17 September 2023 12:48PM

    Process ID: 258105
    Host:       d-19-15-2
    PSIDATADIR: /home/gridsan/kfisher/.conda/envs/p4env/share/psi4
    Memory:     18.6 GiB
    Threads:    1
    
  ==> Input QCSchema <==

--------------------------------------------------------------------------
{'driver': 'energy',
 'extras': {'psiapi': True, 'wfn_qcvars_only': True},
 'id': None,
 'keywords': {'D_CONVERGENCE': 1e-10, 'E_CONVERGENCE': 1e-10, 'function_kwargs': {'dft_functional': 'scan-d3zero2b'}},
 'model': {'basis': 'aug-cc-pvtz', 'method': 'scf'},
 'molecule': {'atom_labels': ['', '', '', '', '', '', '', '', ''],
              'atomic_numbers': [1, 1, 8, 1, 1, 8, 1, 1, 8],
              'fix_com': True,
              'fix_orientation': True,
              'fix_symmetry': 'c1',
              'fragment_charges': [0.0, 0.0, 0.0],
              'fragment_multiplicities': [1, 1, 1],
              'fragments': [[0, 1, 2], [3, 4, 5], [6, 7, 8]],
              'geometry': [-4.395668451131715, -2.556518842312072, 5.004012468048863, -7.276735604552182,
                           -2.340374368034385, 5.656810440135804, -6.010187883890869, -1.9368071022981868,
                           4.3617859451611745, -6.2618102654205146, -2.979964174956484, 0.46718064386595365,
                           -6.10548093314398, -2.2969725556794636, -2.4562973495292453, -6.10055439823765,
                           -3.722620740802205, -1.202151240025168, -2.438538383703597, -9.023254674845916,
                           -2.2117024626176915, -2.889662024681536, -6.1907447334177546, -1.703594489374536,
                           -1.5037616396830085, -7.481255523055421, -1.6677074564164167],
              'mass_numbers': [1, 1, 16, 1, 1, 16, 1, 1, 16],
              'masses': [1.00782503223, 1.00782503223, 15.99491461957, 1.00782503223, 1.00782503223, 15.99491461957,
                         1.00782503223, 1.00782503223, 15.99491461957],
              'molecular_charge': 0.0,
              'molecular_multiplicity': 1,
              'name': 'H6O3',
              'provenance': {'creator': 'QCElemental',
                             'routine': 'qcelemental.molparse.from_string',
                             'version': 'v0.25.1'},
              'real': [True, True, True, False, False, False, True, True, True],
              'schema_name': 'qcschema_molecule',
              'schema_version': 2,
              'symbols': ['H', 'H', 'O', 'H', 'H', 'O', 'H', 'H', 'O'],
              'validated': True},
 'protocols': {'stdout': True},
 'provenance': {'creator': 'QCElemental', 'routine': 'qcelemental.models.results', 'version': 'v0.25.1'},
 'schema_name': 'qcschema_input',
 'schema_version': 1}
--------------------------------------------------------------------------

Scratch directory: /home/gridsan/kfisher/scratch/

*** tstart() called on d-19-15-2
*** at Tue Sep 19 14:18:11 2023

   => Loading Basis Set <=

    Name: AUG-CC-PVTZ
    Role: ORBITAL
    Keyword: BASIS
    atoms 1-2, 4-5, 7-8 entry H          line    40 file /home/gridsan/kfisher/.conda/envs/p4env/share/psi4/basis/aug-cc-pvtz.gbs 
    atoms 3, 6, 9       entry O          line   331 file /home/gridsan/kfisher/.conda/envs/p4env/share/psi4/basis/aug-cc-pvtz.gbs 

   => SCAN-D3: Empirical Dispersion <=

    Grimme's -D3 (zero-damping) Dispersion Correction
    Grimme S.; Antony J.; Ehrlich S.; Krieg H. (2010), J. Chem. Phys., 132: 154104
    Parametrisation from:    J.G. Brandenburg, J. E. Bates, J. Sun, J.P. Perdew, Phys. Rev. B 94, 115144, 2016

        s6 =       1.000000
        s8 =       0.000000
       sr6 =       1.324000
    alpha6 =      14.000000
       sr8 =       1.000000


         ---------------------------------------------------------
                                   SCF
               by Justin Turney, Rob Parrish, Andy Simmonett
                          and Daniel G. A. Smith
                              RKS Reference
                        1 Threads,  19073 MiB Core
         ---------------------------------------------------------

  ==> Geometry <==

    Molecular point group: c1
    Full point group: C1

    Geometry (in Bohr), charge = 0, multiplicity = 1:

       Center              X                  Y                   Z               Mass       
    ------------   -----------------  -----------------  -----------------  -----------------
         H           -4.395668451132    -2.556518842312     5.004012468049     1.007825032230
         H           -7.276735604552    -2.340374368034     5.656810440136     1.007825032230
         O           -6.010187883891    -1.936807102298     4.361785945161    15.994914619570
      Gh(H)          -6.261810265421    -2.979964174956     0.467180643866     1.007825032230
      Gh(H)          -6.105480933144    -2.296972555679    -2.456297349529     1.007825032230
      Gh(O)          -6.100554398238    -3.722620740802    -1.202151240025    15.994914619570
         H           -2.438538383704    -9.023254674846    -2.211702462618     1.007825032230
         H           -2.889662024682    -6.190744733418    -1.703594489375     1.007825032230
         O           -1.503761639683    -7.481255523055    -1.667707456416    15.994914619570

  Running in c1 symmetry.

  Rotational constants: A =      0.06318  B =      0.02564  C =      0.02019 [cm^-1]
  Rotational constants: A =   1894.04778  B =    768.69883  C =    605.32539 [MHz]
  Nuclear repulsion =   28.502723348836877

  Charge       = 0
  Multiplicity = 1
  Electrons    = 20
  Nalpha       = 10
  Nbeta        = 10

  ==> Algorithm <==

  SCF Algorithm Type is DF.
  DIIS enabled.
  MOM disabled.
  Fractional occupation disabled.
  Guess Type is SAD.
  Energy threshold   = 1.00e-10
  Density threshold  = 1.00e-10
  Integral threshold = 1.00e-12

  ==> Primary Basis <==

  Basis Set: AUG-CC-PVTZ
    Blend: AUG-CC-PVTZ
    Number of shells: 96
    Number of basis functions: 276
    Number of Cartesian functions: 315
    Spherical Harmonics?: true
    Max angular momentum: 3

  ==> DFT Potential <==

   => Composite Functional: SCAN-D3ZERO2B <= 

    SCAN Meta-GGA XC Functional
(10.1103/PhysRevLett.115.036402)
    J. Sun, A. Ruzsinszky, J. P. Perdew  Phys. Rev. Lett. 115, 036402, 2015


    Deriv               =              1
    GGA                 =           TRUE
    Meta                =           TRUE

    Exchange Hybrid     =          FALSE
    MP2 Hybrid          =          FALSE

   => Exchange Functionals <=

    1.0000   XC_MGGA_X_SCAN

   => Correlation Functionals <=

    1.0000   XC_MGGA_C_SCAN

   => LibXC Density Thresholds  <==

    XC_MGGA_C_SCAN:  1.00E-15 
    XC_MGGA_X_SCAN:  1.00E-15 

   => Molecular Quadrature <=

    Radial Scheme          =       TREUTLER
    Pruning Scheme         =           NONE
    Nuclear Scheme         =       TREUTLER

    Blocking Scheme        =         OCTREE
    BS radius alpha        =              1
    Pruning alpha          =              1
    Radial Points          =             75
    Spherical Points       =            302
    Total Points           =         198308
    Total Blocks           =           1544
    Max Points             =            256
    Max Functions          =            264
    Weights Tolerance      =       1.00E-15

   => Loading Basis Set <=

    Name: (AUG-CC-PVTZ AUX)
    Role: JKFIT
    Keyword: DF_BASIS_SCF
    atoms 1-2, 4-5, 7-8 entry H          line    70 file /home/gridsan/kfisher/.conda/envs/p4env/share/psi4/basis/aug-cc-pvtz-jkfit.gbs 
    atoms 3, 6, 9       entry O          line   286 file /home/gridsan/kfisher/.conda/envs/p4env/share/psi4/basis/aug-cc-pvtz-jkfit.gbs 

  ==> Integral Setup <==

  DFHelper Memory: AOs need 0.325 GiB; user supplied 11.105 GiB. Using in-core AOs.

  ==> MemDFJK: Density-Fitted J/K Matrices <==

    J tasked:                   Yes
    K tasked:                    No
    wK tasked:                   No
    OpenMP threads:               1
    Memory [MiB]:             11371
    Algorithm:                 Core
    Schwarz Cutoff:           1E-12
    Mask sparsity (%):       8.1285
    Fitting Condition:        1E-10

   => Auxiliary Basis Set <=

  Basis Set: (AUG-CC-PVTZ AUX)
    Blend: AUG-CC-PVTZ-JKFIT
    Number of shells: 174
    Number of basis functions: 588
    Number of Cartesian functions: 723
    Spherical Harmonics?: true
    Max angular momentum: 4

  Cached 100.0% of DFT collocation blocks in 2.865 [GiB].

  Minimum eigenvalue in the overlap matrix is 1.9357795127E-04.
  Reciprocal condition number of the overlap matrix is 1.9907037397E-05.
    Using symmetric orthogonalization.

  ==> Pre-Iterations <==

  SCF Guess: Superposition of Atomic Densities via on-the-fly atomic UHF (no occupation information).

   -------------------------
    Irrep   Nso     Nmo    
   -------------------------
     A        276     276 
   -------------------------
    Total     276     276
   -------------------------

  ==> Iterations <==

                           Total Energy        Delta E     RMS |[F,P]|

   @DF-RKS iter SAD:  -152.09899768602034   -1.52099e+02   0.00000e+00 
   @DF-RKS iter   1:  -152.49029737639057   -3.91300e-01   3.70212e-03 DIIS/ADIIS
   @DF-RKS iter   2:  -151.28185428602083    1.20844e+00   7.14298e-03 DIIS/ADIIS
   @DF-RKS iter   3:  -152.85739059137475   -1.57554e+00   2.87516e-04 DIIS/ADIIS
   @DF-RKS iter   4:  -152.86017961166613   -2.78902e-03   9.70468e-05 DIIS
   @DF-RKS iter   5:  -152.86030117266006   -1.21561e-04   7.00799e-05 DIIS
   @DF-RKS iter   6:  -152.86042769316362   -1.26521e-04   8.20427e-06 DIIS
   @DF-RKS iter   7:  -152.86042947097798   -1.77781e-06   4.97486e-07 DIIS
   @DF-RKS iter   8:  -152.86042947701023   -6.03225e-09   1.44520e-07 DIIS
   @DF-RKS iter   9:  -152.86042947761783   -6.07599e-10   3.94863e-08 DIIS
   @DF-RKS iter  10:  -152.86042947766711   -4.92832e-11   2.00745e-09 DIIS
   @DF-RKS iter  11:  -152.86042947766728   -1.70530e-13   4.55996e-10 DIIS
   @DF-RKS iter  12:  -152.86042947766711    1.70530e-13   7.21134e-11 DIIS
  Energy and wave function converged.


  ==> Post-Iterations <==

   Electrons on quadrature grid:
      Ntotal   =   19.9999956841 ; deviation = -4.316e-06 

    Orbital Energies [Eh]
    ---------------------

    Doubly Occupied:                                                      

       1A    -18.973091     2A    -18.972558     3A     -0.975019  
       4A     -0.965542     5A     -0.498785     6A     -0.477596  
       7A     -0.359675     8A     -0.355571     9A     -0.280348  
      10A     -0.275032  

    Virtual:                                                              

      11A     -0.019504    12A     -0.003530    13A      0.032819  
      14A      0.035008    15A      0.053006    16A      0.058774  
      17A      0.085812    18A      0.087672    19A      0.092437  
      20A      0.107412    21A      0.121426    22A      0.123702  
      23A      0.144263    24A      0.145742    25A      0.159961  
      26A      0.167446    27A      0.170511    28A      0.180076  
      29A      0.183745    30A      0.205330    31A      0.214395  
      32A      0.233802    33A      0.241390    34A      0.246913  
      35A      0.259285    36A      0.281729    37A      0.307900  
      38A      0.318053    39A      0.322741    40A      0.326645  
      41A      0.336310    42A      0.338248    43A      0.345734  
      44A      0.356709    45A      0.365532    46A      0.372257  
      47A      0.382382    48A      0.396906    49A      0.408974  
      50A      0.434410    51A      0.473386    52A      0.489726  
      53A      0.514014    54A      0.533920    55A      0.540727  
      56A      0.591635    57A      0.597424    58A      0.622084  
      59A      0.633948    60A      0.643437    61A      0.660021  
      62A      0.672377    63A      0.692230    64A      0.721468  
      65A      0.747761    66A      0.753440    67A      0.755317  
      68A      0.774929    69A      0.780810    70A      0.792743  
      71A      0.799598    72A      0.816623    73A      0.832896  
      74A      0.844106    75A      0.858588    76A      0.860554  
      77A      0.863969    78A      0.872273    79A      0.883881  
      80A      0.891014    81A      0.906933    82A      0.913062  
      83A      0.927746    84A      0.944075    85A      0.949763  
      86A      0.954043    87A      0.972269    88A      0.989542  
      89A      1.016455    90A      1.022224    91A      1.031186  
      92A      1.035534    93A      1.064187    94A      1.083968  
      95A      1.086685    96A      1.122778    97A      1.136242  
      98A      1.144616    99A      1.152049   100A      1.154602  
     101A      1.170719   102A      1.205379   103A      1.225898  
     104A      1.249050   105A      1.269009   106A      1.305247  
     107A      1.354706   108A      1.377419   109A      1.404713  
     110A      1.412377   111A      1.424416   112A      1.441356  
     113A      1.463536   114A      1.476177   115A      1.505935  
     116A      1.549890   117A      1.580342   118A      1.637748  
     119A      1.660321   120A      1.692762   121A      1.707779  
     122A      1.742437   123A      1.757120   124A      1.801087  
     125A      1.824176   126A      1.835980   127A      1.868695  
     128A      1.906585   129A      1.919405   130A      1.973580  
     131A      1.989467   132A      2.072065   133A      2.098900  
     134A      2.123432   135A      2.166394   136A      2.182519  
     137A      2.216740   138A      2.256681   139A      2.267225  
     140A      2.291872   141A      2.304247   142A      2.320389  
     143A      2.328899   144A      2.352455   145A      2.389057  
     146A      2.393934   147A      2.456843   148A      2.522391  
     149A      2.542431   150A      2.553350   151A      2.574401  
     152A      2.578000   153A      2.595611   154A      2.615021  
     155A      2.640094   156A      2.663703   157A      2.685869  
     158A      2.696976   159A      2.743615   160A      2.786591  
     161A      2.799068   162A      2.810039   163A      2.888990  
     164A      2.902101   165A      2.998120   166A      3.037529  
     167A      3.171743   168A      3.241604   169A      3.393654  
     170A      3.404122   171A      3.461183   172A      3.486189  
     173A      3.501245   174A      3.600974   175A      3.628650  
     176A      3.783554   177A      3.802897   178A      3.854498  
     179A      3.908579   180A      3.911476   181A      3.967941  
     182A      4.024292   183A      4.101991   184A      4.116571  
     185A      4.122080   186A      4.136239   187A      4.242039  
     188A      4.272575   189A      4.276277   190A      4.290830  
     191A      4.304764   192A      4.340428   193A      4.361028  
     194A      4.411690   195A      4.421587   196A      4.452171  
     197A      4.462697   198A      4.479014   199A      4.518541  
     200A      4.640815   201A      4.654788   202A      4.667669  
     203A      4.711327   204A      4.843052   205A      4.926991  
     206A      4.992472   207A      4.992895   208A      5.008714  
     209A      5.026117   210A      5.051240   211A      5.084238  
     212A      5.115315   213A      5.135589   214A      5.164467  
     215A      5.229883   216A      5.256601   217A      5.293831  
     218A      5.340973   219A      5.414741   220A      5.477681  
     221A      5.525506   222A      5.540436   223A      5.585291  
     224A      5.760811   225A      5.832264   226A      5.944895  
     227A      5.963322   228A      6.255718   229A      6.271784  
     230A      6.309403   231A      6.392354   232A      6.462469  
     233A      6.579665   234A      6.623090   235A      6.636452  
     236A      6.690550   237A      6.826750   238A      6.863497  
     239A      6.900280   240A      6.935069   241A      6.939443  
     242A      6.976477   243A      6.985997   244A      7.005459  
     245A      7.014615   246A      7.030180   247A      7.053570  
     248A      7.082756   249A      7.130664   250A      7.245390  
     251A      7.273558   252A      7.548326   253A      7.578265  
     254A      7.606097   255A      7.611842   256A      7.787904  
     257A      7.841386   258A      8.056439   259A      8.173608  
     260A      8.272268   261A      8.384417   262A      8.436479  
     263A      8.698421   264A      8.953210   265A      9.762987  
     266A      9.940756   267A     10.095725   268A     10.264169  
     269A     11.012844   270A     11.802648   271A     12.028886  
     272A     13.451815   273A     14.005476   274A     14.761796  
     275A     14.871510   276A     65.272123  

    Final Occupation by Irrep:
              A 
    DOCC [    10 ]
    NA   [    10 ]
    NB   [    10 ]

  @DF-RKS Final Energy:  -152.86042947766711

   => Energetics <=

    Nuclear Repulsion Energy =             28.5027233488368772
    One-Electron Energy =                -266.4642866180611236
    Two-Electron Energy =                 103.6411173632421452
    DFT Exchange-Correlation Energy =     -18.5399056316849986
    Empirical Dispersion Energy =          -0.0000779400000000
    VV10 Nonlocal Energy =                  0.0000000000000000
    Total Energy =                       -152.8604294776671395

Computation Completed


[...]
    DFT Exchange-Correlation Energy =      -9.2710621890690916
    Empirical Dispersion Energy =          -0.0000001800000000
    VV10 Nonlocal Energy =                  0.0000000000000000
    Total Energy =                        -76.4292848105201870

Computation Completed


Properties will be evaluated at   0.000000,   0.000000,   0.000000 [a0]

Properties computed using the SCF density matrix


 Multipole Moments:

 ------------------------------------------------------------------------------------
     Multipole            Electronic (a.u.)      Nuclear  (a.u.)        Total (a.u.)
 ------------------------------------------------------------------------------------

 L = 1.  Multiply by 2.5417464519 to convert [e a0] to [Debye]
 Dipole X            :         61.1177132          -61.1717264           -0.0540132
 Dipole Y            :         35.7507376          -35.0579027            0.6928349
 Dipole Z            :         11.7451904          -11.6063266            0.1388638
 Magnitude           :                                                    0.7086754

 ------------------------------------------------------------------------------------

*** tstop() called on d-19-15-2 at Tue Sep 19 14:25:12 2023
Module time:
	user time   =      22.75 seconds =       0.38 minutes
	system time =       0.15 seconds =       0.00 minutes
	total time  =         23 seconds =       0.38 minutes
Total time:
	user time   =  105146.88 seconds =    1752.45 minutes
	system time =   53817.50 seconds =     896.96 minutes
	total time  =     178608 seconds =    2976.80 minutes

    Psi4 stopped on: Tuesday, 19 September 2023 02:25PM
    Psi4 wall time for execution: 0:00:23.16


    -----------------------------------------------------------------------
          Psi4: An Open-Source Ab Initio Electronic Structure Package
                               Psi4 1.7 release

                         Git: Rev {HEAD} 6ce35a5 


    D. G. A. Smith, L. A. Burns, A. C. Simmonett, R. M. Parrish,
    M. C. Schieber, R. Galvelis, P. Kraus, H. Kruse, R. Di Remigio,
    A. Alenaizan, A. M. James, S. Lehtola, J. P. Misiewicz, M. Scheurer,
    R. A. Shaw, J. B. Schriber, Y. Xie, Z. L. Glick, D. A. Sirianni,
    J. S. O'Brien, J. M. Waldrop, A. Kumar, E. G. Hohenstein,
    B. P. Pritchard, B. R. Brooks, H. F. Schaefer III, A. Yu. Sokolov,
    K. Patkowski, A. E. DePrince III, U. Bozkaya, R. A. King,
    F. A. Evangelista, J. M. Turney, T. D. Crawford, C. D. Sherrill,
    J. Chem. Phys. 152(18) 184108 (2020). https://doi.org/10.1063/5.0006002

                            Additional Code Authors
    E. T. Seidl, C. L. Janssen, E. F. Valeev, M. L. Leininger,
    J. F. Gonthier, R. M. Richard, H. R. McAlexander, M. Saitow, X. Wang,
    P. Verma, M. H. Lechner, A. Jiang, S. Behnle, A. G. Heide,
    M. F. Herbst, and D. L. Poole

             Previous Authors, Complete List of Code Contributors,
                       and Citations for Specific Modules
    https://github.com/psi4/psi4/blob/master/codemeta.json
    https://github.com/psi4/psi4/graphs/contributors
    http://psicode.org/psi4manual/master/introduction.html#citing-psifour

    -----------------------------------------------------------------------


    Psi4 started on: Sunday, 17 September 2023 12:48PM

    Process ID: 258105
    Host:       d-19-15-2
    PSIDATADIR: /home/gridsan/kfisher/.conda/envs/p4env/share/psi4
    Memory:     18.6 GiB
    Threads:    1
    
  ==> Input QCSchema <==

--------------------------------------------------------------------------
{'driver': 'energy',
 'extras': {'psiapi': True, 'wfn_qcvars_only': True},
 'id': None,
 'keywords': {'D_CONVERGENCE': 1e-10, 'E_CONVERGENCE': 1e-10, 'function_kwargs': {'dft_functional': 'scan-d3zero2b'}},
 'model': {'basis': 'aug-cc-pvtz', 'method': 'scf'},
 'molecule': {'atom_labels': ['', '', '', '', '', ''],
              'atomic_numbers': [1, 1, 8, 1, 1, 8],
              'fix_com': True,
              'fix_orientation': True,
              'fix_symmetry': 'c1',
              'fragment_charges': [0.0, 0.0],
              'fragment_multiplicities': [1, 1],
              'fragments': [[0, 1, 2], [3, 4, 5]],
              'geometry': [-6.2618102654205146, -2.979964174956484, 0.46718064386595365, -6.10548093314398,
                           -2.2969725556794636, -2.4562973495292453, -6.10055439823765, -3.722620740802205,
                           -1.202151240025168, -2.438538383703597, -9.023254674845916, -2.2117024626176915,
                           -2.889662024681536, -6.1907447334177546, -1.703594489374536, -1.5037616396830085,
                           -7.481255523055421, -1.6677074564164167],
              'mass_numbers': [1, 1, 16, 1, 1, 16],
              'masses': [1.00782503223, 1.00782503223, 15.99491461957, 1.00782503223, 1.00782503223, 15.99491461957],
              'molecular_charge': 0.0,
              'molecular_multiplicity': 1,
              'name': 'H4O2',
              'provenance': {'creator': 'QCElemental',
                             'routine': 'qcelemental.molparse.from_string',
                             'version': 'v0.25.1'},
              'real': [True, True, True, True, True, True],
              'schema_name': 'qcschema_molecule',
              'schema_version': 2,
              'symbols': ['H', 'H', 'O', 'H', 'H', 'O'],
              'validated': True},
 'protocols': {'stdout': True},
 'provenance': {'creator': 'QCElemental', 'routine': 'qcelemental.models.results', 'version': 'v0.25.1'},
 'schema_name': 'qcschema_input',
 'schema_version': 1}
--------------------------------------------------------------------------

Scratch directory: /home/gridsan/kfisher/scratch/

*** tstart() called on d-19-15-2
*** at Tue Sep 19 14:25:12 2023

   => Loading Basis Set <=

    Name: AUG-CC-PVTZ
    Role: ORBITAL
    Keyword: BASIS
    atoms 1-2, 4-5 entry H          line    40 file /home/gridsan/kfisher/.conda/envs/p4env/share/psi4/basis/aug-cc-pvtz.gbs 
    atoms 3, 6     entry O          line   331 file /home/gridsan/kfisher/.conda/envs/p4env/share/psi4/basis/aug-cc-pvtz.gbs 

   => SCAN-D3: Empirical Dispersion <=

    Grimme's -D3 (zero-damping) Dispersion Correction
    Grimme S.; Antony J.; Ehrlich S.; Krieg H. (2010), J. Chem. Phys., 132: 154104
    Parametrisation from:    J.G. Brandenburg, J. E. Bates, J. Sun, J.P. Perdew, Phys. Rev. B 94, 115144, 2016

        s6 =       1.000000
        s8 =       0.000000
       sr6 =       1.324000
    alpha6 =      14.000000
       sr8 =       1.000000


         ---------------------------------------------------------
                                   SCF
               by Justin Turney, Rob Parrish, Andy Simmonett
                          and Daniel G. A. Smith
                              RKS Reference
                        1 Threads,  19073 MiB Core
         ---------------------------------------------------------

  ==> Geometry <==

    Molecular point group: c1
    Full point group: C1

    Geometry (in Bohr), charge = 0, multiplicity = 1:

       Center              X                  Y                   Z               Mass       
    ------------   -----------------  -----------------  -----------------  -----------------
         H           -6.261810265421    -2.979964174956     0.467180643866     1.007825032230
         H           -6.105480933144    -2.296972555679    -2.456297349529     1.007825032230
         O           -6.100554398238    -3.722620740802    -1.202151240025    15.994914619570
         H           -2.438538383704    -9.023254674846    -2.211702462618     1.007825032230
         H           -2.889662024682    -6.190744733418    -1.703594489375     1.007825032230
         O           -1.503761639683    -7.481255523055    -1.667707456416    15.994914619570

  Running in c1 symmetry.

  Rotational constants: A =      0.18676  B =      0.03462  C =      0.02934 [cm^-1]
  Rotational constants: A =   5598.99740  B =   1037.92114  C =    879.53997 [MHz]
  Nuclear repulsion =   34.614401198813994

  Charge       = 0
  Multiplicity = 1
  Electrons    = 20
  Nalpha       = 10
  Nbeta        = 10

  ==> Algorithm <==

  SCF Algorithm Type is DF.
  DIIS enabled.
  MOM disabled.
  Fractional occupation disabled.
  Guess Type is SAD.
  Energy threshold   = 1.00e-10
  Density threshold  = 1.00e-10
  Integral threshold = 1.00e-12

  ==> Primary Basis <==

  Basis Set: AUG-CC-PVTZ
    Blend: AUG-CC-PVTZ
    Number of shells: 64
    Number of basis functions: 184
    Number of Cartesian functions: 210
    Spherical Harmonics?: true
    Max angular momentum: 3

  ==> DFT Potential <==

   => Composite Functional: SCAN-D3ZERO2B <= 

    SCAN Meta-GGA XC Functional
(10.1103/PhysRevLett.115.036402)
    J. Sun, A. Ruzsinszky, J. P. Perdew  Phys. Rev. Lett. 115, 036402, 2015


    Deriv               =              1
    GGA                 =           TRUE
    Meta                =           TRUE

    Exchange Hybrid     =          FALSE
    MP2 Hybrid          =          FALSE

   => Exchange Functionals <=

    1.0000   XC_MGGA_X_SCAN

   => Correlation Functionals <=

    1.0000   XC_MGGA_C_SCAN

   => LibXC Density Thresholds  <==

    XC_MGGA_C_SCAN:  1.00E-15 
    XC_MGGA_X_SCAN:  1.00E-15 

   => Molecular Quadrature <=

    Radial Scheme          =       TREUTLER
    Pruning Scheme         =           NONE
    Nuclear Scheme         =       TREUTLER

    Blocking Scheme        =         OCTREE
    BS radius alpha        =              1
    Pruning alpha          =              1
    Radial Points          =             75
    Spherical Points       =            302
    Total Points           =         132597
    Total Blocks           =           1053
    Max Points             =            255
    Max Functions          =            184
    Weights Tolerance      =       1.00E-15

   => Loading Basis Set <=

    Name: (AUG-CC-PVTZ AUX)
    Role: JKFIT
    Keyword: DF_BASIS_SCF
    atoms 1-2, 4-5 entry H          line    70 file /home/gridsan/kfisher/.conda/envs/p4env/share/psi4/basis/aug-cc-pvtz-jkfit.gbs 
    atoms 3, 6     entry O          line   286 file /home/gridsan/kfisher/.conda/envs/p4env/share/psi4/basis/aug-cc-pvtz-jkfit.gbs 

  ==> Integral Setup <==

  DFHelper Memory: AOs need 0.105 GiB; user supplied 12.497 GiB. Using in-core AOs.

  ==> MemDFJK: Density-Fitted J/K Matrices <==

    J tasked:                   Yes
    K tasked:                    No
    wK tasked:                   No
    OpenMP threads:               1
    Memory [MiB]:             12797
    Algorithm:                 Core
    Schwarz Cutoff:           1E-12
    Mask sparsity (%):       2.4397
    Fitting Condition:        1E-10

   => Auxiliary Basis Set <=

  Basis Set: (AUG-CC-PVTZ AUX)
    Blend: AUG-CC-PVTZ-JKFIT
    Number of shells: 116
    Number of basis functions: 392
    Number of Cartesian functions: 482
    Spherical Harmonics?: true
    Max angular momentum: 4

  Cached 100.0% of DFT collocation blocks in 1.472 [GiB].

  Minimum eigenvalue in the overlap matrix is 2.6137770379E-04.
  Reciprocal condition number of the overlap matrix is 3.0232748475E-05.
    Using symmetric orthogonalization.

  ==> Pre-Iterations <==

  SCF Guess: Superposition of Atomic Densities via on-the-fly atomic UHF (no occupation information).

   -------------------------
    Irrep   Nso     Nmo    
   -------------------------
     A        184     184 
   -------------------------
    Total     184     184
   -------------------------

  ==> Iterations <==

                           Total Energy        Delta E     RMS |[F,P]|

   @DF-RKS iter SAD:  -152.12364931578560   -1.52124e+02   0.00000e+00 
   @DF-RKS iter   1:  -152.51090893644309   -3.87260e-01   5.45842e-03 DIIS/ADIIS
   @DF-RKS iter   2:  -151.43312460220113    1.07778e+00   1.02562e-02 DIIS/ADIIS
   @DF-RKS iter   3:  -152.86371860004766   -1.43059e+00   3.91432e-04 DIIS/ADIIS
   @DF-RKS iter   4:  -152.86452017364729   -8.01574e-04   3.65556e-04 DIIS/ADIIS
   @DF-RKS iter   5:  -152.86602615918719   -1.50599e-03   6.63362e-05 DIIS
   @DF-RKS iter   6:  -152.86607722461889   -5.10654e-05   1.13886e-05 DIIS
   @DF-RKS iter   7:  -152.86607898652937   -1.76191e-06   1.38812e-06 DIIS
   @DF-RKS iter   8:  -152.86607900986934   -2.33400e-08   3.25123e-07 DIIS
   @DF-RKS iter   9:  -152.86607901121016   -1.34082e-09   4.82001e-08 DIIS
   @DF-RKS iter  10:  -152.86607901124236   -3.22018e-11   4.38543e-09 DIIS
   @DF-RKS iter  11:  -152.86607901124287   -5.11591e-13   9.38689e-10 DIIS
   @DF-RKS iter  12:  -152.86607901124285    2.84217e-14   1.79140e-10 DIIS
   @DF-RKS iter  13:  -152.86607901124296   -1.13687e-13   2.91056e-11 DIIS
  Energy and wave function converged.


  ==> Post-Iterations <==

   Electrons on quadrature grid:
      Ntotal   =   20.0000033720 ; deviation = 3.372e-06 

    Orbital Energies [Eh]
    ---------------------

    Doubly Occupied:                                                      

       1A    -18.995314     2A    -18.949489     3A     -0.993080  
       4A     -0.943007     5A     -0.517759     6A     -0.456707  
       7A     -0.379083     8A     -0.336821     9A     -0.301049  
      10A     -0.254637  

    Virtual:                                                              

      11A     -0.026790    12A      0.014803    13A      0.026871  
      14A      0.050336    15A      0.077951    16A      0.091671  
      17A      0.103697    18A      0.111307    19A      0.126978  
      20A      0.135867    21A      0.157172    22A      0.166617  
      23A      0.170880    24A      0.189042    25A      0.199652  
      26A      0.206078    27A      0.220158    28A      0.253171  
      29A      0.269161    30A      0.291405    31A      0.324981  
      32A      0.329263    33A      0.333295    34A      0.347513  
      35A      0.354827    36A      0.357606    37A      0.361328  
      38A      0.479943    39A      0.496274    40A      0.502573  
      41A      0.531204    42A      0.577312    43A      0.594520  
      44A      0.604129    45A      0.627213    46A      0.634722  
      47A      0.656746    48A      0.670669    49A      0.717983  
      50A      0.728848    51A      0.779515    52A      0.787378  
      53A      0.803736    54A      0.819364    55A      0.823397  
      56A      0.839733    57A      0.848931    58A      0.854527  
      59A      0.875344    60A      0.896107    61A      0.905783  
      62A      0.927624    63A      0.930999    64A      0.959846  
      65A      0.970319    66A      1.025470    67A      1.052325  
      68A      1.063980    69A      1.083696    70A      1.107403  
      71A      1.114701    72A      1.123951    73A      1.143431  
      74A      1.203292    75A      1.237229    76A      1.268736  
      77A      1.314921    78A      1.361551    79A      1.407481  
      80A      1.420110    81A      1.463619    82A      1.499466  
      83A      1.539179    84A      1.579638    85A      1.657456  
      86A      1.671508    87A      1.750822    88A      1.772488  
      89A      1.819412    90A      1.844501    91A      1.938666  
      92A      2.057198    93A      2.087909    94A      2.098422  
      95A      2.151577    96A      2.194308    97A      2.203475  
      98A      2.234076    99A      2.249803   100A      2.268834  
     101A      2.281326   102A      2.326351   103A      2.363224  
     104A      2.399753   105A      2.447971   106A      2.532881  
     107A      2.536794   108A      2.546516   109A      2.592799  
     110A      2.619129   111A      2.665313   112A      2.692699  
     113A      2.704815   114A      2.729808   115A      2.796133  
     116A      2.817564   117A      3.446601   118A      3.461580  
     119A      3.536587   120A      3.735253   121A      3.789840  
     122A      3.906215   123A      3.924978   124A      3.931794  
     125A      4.020497   126A      4.061426   127A      4.091737  
     128A      4.131125   129A      4.144501   130A      4.224611  
     131A      4.245349   132A      4.259776   133A      4.283294  
     134A      4.289422   135A      4.324656   136A      4.375927  
     137A      4.400366   138A      4.432808   139A      4.448019  
     140A      4.543307   141A      4.628085   142A      4.678049  
     143A      4.902916   144A      4.952815   145A      4.976533  
     146A      5.020352   147A      5.033013   148A      5.085896  
     149A      5.097155   150A      5.133157   151A      5.228374  
     152A      5.288837   153A      5.434781   154A      5.542717  
     155A      5.909237   156A      5.960569   157A      6.264805  
     158A      6.270241   159A      6.461609   160A      6.511377  
     161A      6.576139   162A      6.650649   163A      6.831878  
     164A      6.854185   165A      6.879418   166A      6.907687  
     167A      6.947235   168A      6.955487   169A      6.965099  
     170A      6.993104   171A      7.005894   172A      7.012841  
     173A      7.026245   174A      7.119397   175A      7.170433  
     176A      7.316083   177A      7.526946   178A      7.577037  
     179A      7.599736   180A      7.637303   181A      8.368070  
     182A      8.382948   183A     14.274215   184A     15.017238  

    Final Occupation by Irrep:
              A 
    DOCC [    10 ]
    NA   [    10 ]
    NB   [    10 ]

  @DF-RKS Final Energy:  -152.86607901124296

   => Energetics <=

    Nuclear Repulsion Energy =             34.6144011988139937
    One-Electron Energy =                -278.7126340140001162
    Two-Electron Energy =                 109.7711250304976573
    DFT Exchange-Correlation Energy =     -18.5387673565544837
    Empirical Dispersion Energy =          -0.0002038700000000
    VV10 Nonlocal Energy =                  0.0000000000000000
    Total Energy =                       -152.8660790112429311

Computation Completed


Properties will be evaluated at   0.000000,   0.000000,   0.000000 [a0]

Properties computed using the SCF density matrix


 Multipole Moments:

 ------------------------------------------------------------------------------------
     Multipole            Electronic (a.u.)      Nuclear  (a.u.)        Total (a.u.)
 ------------------------------------------------------------------------------------

 L = 1.  Multiply by 2.5417464519 to convert [e a0] to [Debye]
 Dipole X            :         77.5961587          -78.5300199           -0.9338612
 Dipole Y            :        110.8873806         -110.1219462            0.7654343
 Dipole Z            :         28.8516681          -28.8632832           -0.0116151
 Magnitude           :                                                    1.2075270

 ------------------------------------------------------------------------------------

*** tstop() called on d-19-15-2 at Tue Sep 19 14:25:41 2023
Module time:
	user time   =      25.53 seconds =       0.43 minutes
	system time =       0.17 seconds =       0.00 minutes
	total time  =         29 seconds =       0.48 minutes
Total time:
	user time   =  105172.48 seconds =    1752.87 minutes
	system time =   53817.67 seconds =     896.96 minutes
	total time  =     178637 seconds =    2977.28 minutes

    Psi4 stopped on: Tuesday, 19 September 2023 02:25PM
    Psi4 wall time for execution: 0:00:28.84


  //>>>>>>>>>>>>>>>>>>>>>>>>>>>>>>>>>>>//
  //          ManyBody Results         //
  //<<<<<<<<<<<<<<<<<<<<<<<<<<<<<<<<<<<//


   ==> N-Body: Counterpoise Corrected (CP) energies <==

        n-Body     Total Energy            Interaction Energy                          N-body Contribution to Interaction Energy
                   [Eh]                    [Eh]                  [kcal/mol]            [Eh]                  [kcal/mol]
             1  N/A                         0.000000000000        0.000000000000        0.000000000000        0.000000000000
  FULL/RTN   2  N/A                        -0.008038147930       -5.044013977518       -0.008038147930       -5.044013977518


